
#(C) 2022 by FIZ Karlsruhe - Leibniz Institute for Information Infrastructure.  All rights reserved.
data_250056-ICSD
_database_code_ICSD 250056
_audit_creation_date 2003-10-01
_audit_update_record 2006-04-01
_chemical_name_common 'Tetramanganese diniobate'
_chemical_formula_structural 'Mn4 (Nb2 O9)'
_chemical_formula_sum 'Mn4 Nb2 O9'
_chemical_name_structure_type LiNbO3
_exptl_crystal_density_diffrn 5.22
_citation_title

;
New phases in the Mn O - Nb (Ta)2 O5 system prepared by high-pressure
high-temperature technique
;
loop_
_citation_id
_citation_journal_full
_citation_year
_citation_journal_volume
_citation_page_first
_citation_page_last
_citation_journal_id_ASTM
primary 'Zhurnal Strukturnoi Khimii' 2003 44 286 289 ZSTKAI
loop_
_citation_author_citation_id
_citation_author_name
primary 'Tarakina, N.V.'
primary 'Tyutyunnik, A.P.'
primary 'D'yachkova, T.V. (Dyachkova, T.V.)'
primary 'Zubkov, V.G.'
primary 'Zainulin, Yu.G.'
primary 'Sayagues, M.'
primary 'Swensson, G.'
_cell_length_a 5.3414
_cell_length_b 5.3414
_cell_length_c 14.1581
_cell_angle_alpha 90.
_cell_angle_beta 90.
_cell_angle_gamma 120.
_cell_volume 349.82
_cell_formula_units_Z 2
_space_group_name_H-M_alt 'R 3 c H'
_space_group_IT_number 161
loop_
_space_group_symop_id
_space_group_symop_operation_xyz
1 '-x+y, y, z+1/2'
2 'x, x-y, z+1/2'
3 '-y, -x, z+1/2'
4 '-x+y, -x, z'
5 '-y, x-y, z'
6 'x, y, z'
7 '-x+y+2/3, y+1/3, z+5/6'
8 'x+2/3, x-y+1/3, z+5/6'
9 '-y+2/3, -x+1/3, z+5/6'
10 '-x+y+2/3, -x+1/3, z+1/3'
11 '-y+2/3, x-y+1/3, z+1/3'
12 'x+2/3, y+1/3, z+1/3'
13 '-x+y+1/3, y+2/3, z+1/6'
14 'x+1/3, x-y+2/3, z+1/6'
15 '-y+1/3, -x+2/3, z+1/6'
16 '-x+y+1/3, -x+2/3, z+2/3'
17 '-y+1/3, x-y+2/3, z+2/3'
18 'x+1/3, y+2/3, z+2/3'
loop_
_atom_type_symbol
_atom_type_oxidation_number
Mn2+ 2
Mn2+ 2.143
Nb5+ 5
O2- -2
loop_
_atom_site_label
_atom_site_type_symbol
_atom_site_symmetry_multiplicity
_atom_site_Wyckoff_symbol
_atom_site_fract_x
_atom_site_fract_y
_atom_site_fract_z
_atom_site_B_iso_or_equiv
_atom_site_occupancy
Mn1 Mn2+ 6 a 0. 0. 0.21775 0.94 1.
Mn2 Mn2+ 6 a 0. 0. 0. 1.55 0.35
Nb1 Nb5+ 6 a 0. 0. 0. 1.55 0.65
O1 O2- 18 b 0.03873 0.31877 0.10007 1.5 1.
loop_
_atom_site_aniso_label
_atom_site_aniso_type_symbol
_atom_site_aniso_B_11
_atom_site_aniso_B_22
_atom_site_aniso_B_33
_atom_site_aniso_B_12
_atom_site_aniso_B_13
_atom_site_aniso_B_23
Mn1 Mn2+ 1.24 1.24 0.31 0.622 0. 0.
Mn2 Mn2+ 1.02 1.02 2.58 0.509 0. 0.
Nb1 Nb5+ 1.02 1.02 2.58 0.509 0. 0.
O1 O2- 1.49 1.49 1.49 0. 0. 0.
#End of TTdata_250056-ICSD