
#(C) 2022 by FIZ Karlsruhe - Leibniz Institute for Information Infrastructure.  All rights reserved.
data_82151-ICSD
_database_code_ICSD 82151
_audit_creation_date 1999-11-30
_audit_update_record 2006-04-01
_chemical_name_common 'Vanadium oxide'
_chemical_formula_structural 'V2 O5'
_chemical_formula_sum 'O5 V2'
_chemical_name_structure_type V2O5
_chemical_name_mineral Shcherbinaite
_exptl_crystal_density_diffrn 3.34
_citation_title

;
Crystal structure of the product of Mg(2+) insertion into V2 O5 single
crystals
;
loop_
_citation_id
_citation_journal_full
_citation_year
_citation_journal_volume
_citation_page_first
_citation_page_last
_citation_journal_id_ASTM
primary 'Journal of Solid State Chemistry' 1996 123 317 323 JSSCBI
loop_
_citation_author_citation_id
_citation_author_name
primary 'Shklover, V.'
primary 'Haibach, T.'
primary 'Ried, F.'
primary 'Nesper, R.'
primary 'Novak, P.'
_cell_length_a 11.544
_cell_length_b 4.383
_cell_length_c 3.571
_cell_angle_alpha 90.
_cell_angle_beta 90.
_cell_angle_gamma 90.
_cell_volume 180.68
_cell_formula_units_Z 2
_space_group_name_H-M_alt 'P m n 21'
_space_group_IT_number 31
loop_
_space_group_symop_id
_space_group_symop_operation_xyz
1 'x+1/2, -y, z+1/2'
2 '-x+1/2, -y, z+1/2'
3 '-x, y, z'
4 'x, y, z'
loop_
_atom_type_symbol
_atom_type_oxidation_number
V5+ 5
O2- -2
loop_
_atom_site_label
_atom_site_type_symbol
_atom_site_symmetry_multiplicity
_atom_site_Wyckoff_symbol
_atom_site_fract_x
_atom_site_fract_y
_atom_site_fract_z
_atom_site_U_iso_or_equiv
_atom_site_occupancy
V1 V5+ 4 b 0.14878 0.3913 0. 0.0075 1.
O1 O2- 4 b 0.1457 0.0303 0.0295 0.0141 1.
O2 O2- 4 b 0.3191 0.5027 0.0049 0.0095 1.
O3 O2- 2 a 0. 0.4995 0.0025 0.0127 1.
#End of TTdata_82151-ICSD