
#(C) 2022 by FIZ Karlsruhe - Leibniz Institute for Information Infrastructure.  All rights reserved.
data_77655-ICSD
_database_code_ICSD 77655
_audit_creation_date 2003-04-01
_chemical_name_common 'Vanadium(IV) oxide - HT (A)'
_chemical_formula_structural 'V O2'
_chemical_formula_sum 'O2 V1'
_exptl_crystal_density_diffrn 4.02
_diffrn_ambient_temperature 473.
_citation_title 'A structural study of tje high-temperature phase of V O2 (A)'
loop_
_citation_id
_citation_journal_full
_citation_year
_citation_journal_volume
_citation_page_first
_citation_page_last
_citation_journal_id_ASTM
primary 'Journal of Solid State Chemistry' 1994 112 196 198 JSSCBI
loop_
_citation_author_citation_id
_citation_author_name
primary 'Yao, T.'
primary 'Oka, Y.'
primary 'Yamamoto, N.'
_cell_length_a 8.483
_cell_length_b 8.483
_cell_length_c 7.6152
_cell_angle_alpha 90.
_cell_angle_beta 90.
_cell_angle_gamma 90.
_cell_volume 548.
_cell_formula_units_Z 16
_space_group_name_H-M_alt 'P 42/n c m Z'
_space_group_IT_number 138
loop_
_space_group_symop_id
_space_group_symop_operation_xyz
1 'y+1/2, x+1/2, -z'
2 'y+1/2, -x, -z+1/2'
3 '-y, x+1/2, -z+1/2'
4 '-y, -x, -z'
5 'x+1/2, y+1/2, -z'
6 '-x, y+1/2, -z+1/2'
7 'x+1/2, -y, -z+1/2'
8 '-x, -y, -z'
9 '-y+1/2, -x+1/2, z'
10 '-y+1/2, x, z+1/2'
11 'y, -x+1/2, z+1/2'
12 'y, x, z'
13 '-x+1/2, -y+1/2, z'
14 'x, -y+1/2, z+1/2'
15 '-x+1/2, y, z+1/2'
16 'x, y, z'
loop_
_atom_type_symbol
_atom_type_oxidation_number
V4+ 4
O2- -2
loop_
_atom_site_label
_atom_site_type_symbol
_atom_site_symmetry_multiplicity
_atom_site_Wyckoff_symbol
_atom_site_fract_x
_atom_site_fract_y
_atom_site_fract_z
_atom_site_B_iso_or_equiv
_atom_site_occupancy
V1 V4+ 16 j 0.255 0.55805 0.1339 . 1.
O1 O2- 16 j 0.2393 0.59 0.377 . 1.
O2 O2- 8 i 0.0913 0.0913 0.601 . 1.
O3 O2- 8 i 0.1096 0.1096 0.15 . 1.
#End of TTdata_77655-ICSD