
#(C) 2022 by FIZ Karlsruhe - Leibniz Institute for Information Infrastructure.  All rights reserved.
data_93110-ICSD
_database_code_ICSD 93110
_audit_creation_date 2003-04-01
_audit_update_record 2016-02-01
_chemical_name_common 'Niobium oxide (12/29)'
_chemical_formula_structural 'Nb12 O29'
_chemical_formula_sum 'Nb12 O29'
_chemical_name_structure_type Nb12O29
_exptl_crystal_density_diffrn 4.58
_diffrn_ambient_temperature 2.
_citation_title 'Charge and spin ordering in monoclinic Nb12 O29'
loop_
_citation_id
_citation_journal_full
_citation_year
_citation_journal_volume
_citation_page_first
_citation_page_last
_citation_journal_id_ASTM
primary 'Journal of the American Chemical Society' 2001 123 5833 5834 JACSAT
loop_
_citation_author_citation_id
_citation_author_name
primary 'Waldron, J.E.L.'
primary 'Green, M.A.'
primary 'Neumann, D.A.'
_cell_length_a 20.7171
_cell_length_b 3.8303
_cell_length_c 15.692
_cell_angle_alpha 90.
_cell_angle_beta 113.112
_cell_angle_gamma 90.
_cell_volume 1145.26
_cell_formula_units_Z 2
_space_group_name_H-M_alt 'C 1 m 1'
_space_group_IT_number 8
loop_
_space_group_symop_id
_space_group_symop_operation_xyz
1 'x, -y, z'
2 'x, y, z'
3 'x+1/2, -y+1/2, z'
4 'x+1/2, y+1/2, z'
loop_
_atom_type_symbol
_atom_type_oxidation_number
Nb5+ 5
Nb4+ 4
Nb5+ 5
Nb4+ 4
O2- -2
loop_
_atom_site_label
_atom_site_type_symbol
_atom_site_symmetry_multiplicity
_atom_site_Wyckoff_symbol
_atom_site_fract_x
_atom_site_fract_y
_atom_site_fract_z
_atom_site_B_iso_or_equiv
_atom_site_occupancy
Nb1 Nb5+ 2 a 0.3051 0. 0.7472 . 1.
Nb2 Nb5+ 2 a 0.9191 0. 0.7323 . 1.
Nb3 Nb5+ 2 a 0.1183 0. 0.7357 . 1.
Nb4 Nb5+ 2 a 0.3779 0. 0.9954 . 1.
Nb5 Nb5+ 2 a 0. 0. 0. . 1.
Nb6 Nb4+ 2 a 0.1972 0. 0.0059 . 1.
Nb7 Nb5+ 2 a 0.1702 0. 0.5497 . 1.
Nb8 Nb5+ 2 a 0.54 0. 0.5444 . 1.
Nb9 Nb5+ 2 a 0.3519 0. 0.5524 . 1.
Nb10 Nb5+ 2 a 0.0924 0. 0.276 . 1.
Nb11 Nb5+ 2 a 0.4543 0. 0.2686 . 1.
Nb12 Nb4+ 2 a 0.2712 0. 0.2603 . 1.
O1 O2- 2 a 0.2287 0. 0.123 . 1.
O2 O2- 2 a 0.4061 0. 0.7194 . 1.
O3 O2- 2 a 0.6088 0. 0.7199 . 1.
O4 O2- 2 a 0.8204 0. 0.7211 . 1.
O5 O2- 2 a 0.02 0. 0.7279 . 1.
O6 O2- 2 a 0.2138 0. 0.7247 . 1.
O7 O2- 2 a 0.3365 0. 0.8533 . 1.
O8 O2- 2 a 0.9571 0. 0.8509 . 1.
O9 O2- 2 a 0.1573 0. 0.8669 . 1.
O10 O2- 2 a 0.2879 0. 0.0107 . 1.
O11 O2- 2 a 0.4807 0. 0.0098 . 1.
O12 O2- 2 a 0.6949 0. 0.0095 . 1.
O13 O2- 2 a 0.8969 0. 0.0057 . 1.
O14 O2- 2 a 0.0999 0. 0.0108 . 1.
O15 O2- 2 a 0.4273 0. 0.1531 . 1.
O16 O2- 2 a 0.0711 0. 0.5749 . 1.
O17 O2- 2 a 0.863 0. 0.5744 . 1.
O18 O2- 2 a 0.6605 0. 0.5736 . 1.
O19 O2- 2 a 0.459 0. 0.5731 . 1.
O20 O2- 2 a 0.2662 0. 0.5828 . 1.
O21 O2- 2 a 0.1383 0. 0.4174 . 1.
O22 O2- 2 a 0.5019 0. 0.4352 . 1.
O23 O2- 2 a 0.3098 0. 0.3934 . 1.
O24 O2- 2 a 0.1862 0. 0.2901 . 1.
O25 O2- 2 a 0.981 0. 0.2895 . 1.
O26 O2- 2 a 0.7805 0. 0.294 . 1.
O27 O2- 2 a 0.5728 0. 0.2862 . 1.
O28 O2- 2 a 0.3728 0. 0.2899 . 1.
O29 O2- 2 a 0.0401 0. 0.1512 . 1.
#End of TTdata_93110-ICSD