
#(C) 2022 by FIZ Karlsruhe - Leibniz Institute for Information Infrastructure.  All rights reserved.
data_32587-ICSD
_database_code_ICSD 32587
_audit_creation_date 1982-12-31
_audit_update_record 2006-04-01
_chemical_name_common 'Vanadium oxide (3/5)'
_chemical_formula_structural 'V3 O5'
_chemical_formula_sum 'O5 V3'
_chemical_name_structure_type V3O5(HT)
_exptl_crystal_density_diffrn 4.73
_diffrn_ambient_temperature 458.
_citation_title
'The structure of the high-temperature modification of V3 O5 at 458 K'
loop_
_citation_id
_citation_journal_full
_citation_year
_citation_journal_volume
_citation_page_first
_citation_page_last
_citation_journal_id_ASTM
primary

;
Acta Crystallographica, Section B: Structural Crystallography and Crystal
Chemistry
; 1982 38 713 719 ACBCAR
loop_
_citation_author_citation_id
_citation_author_name
primary 'Hong, S.H.'
primary 'Asbrink, S.'
_cell_length_a 9.9958
_cell_length_b 5.0268
_cell_length_c 7.009
_cell_angle_alpha 90.
_cell_angle_beta 111.827
_cell_angle_gamma 90.
_cell_volume 326.93
_cell_formula_units_Z 4
_space_group_name_H-M_alt 'C 1 2/c 1'
_space_group_IT_number 15
loop_
_space_group_symop_id
_space_group_symop_operation_xyz
1 'x, -y, z+1/2'
2 '-x, -y, -z'
3 '-x, y, -z+1/2'
4 'x, y, z'
5 'x+1/2, -y+1/2, z+1/2'
6 '-x+1/2, -y+1/2, -z'
7 '-x+1/2, y+1/2, -z+1/2'
8 'x+1/2, y+1/2, z'
loop_
_atom_type_symbol
_atom_type_oxidation_number
V3+ 3.333
O2- -2
loop_
_atom_site_label
_atom_site_type_symbol
_atom_site_symmetry_multiplicity
_atom_site_Wyckoff_symbol
_atom_site_fract_x
_atom_site_fract_y
_atom_site_fract_z
_atom_site_B_iso_or_equiv
_atom_site_occupancy
V1 V3+ 8 f 0.12965 0.49841 0.2195 . 1.
V2 V3+ 4 a 0. 0. 0. . 1.
O1 O2- 8 f 0.30743 0.3475 0.34074 . 1.
O2 O2- 8 f 0.419 0.15599 0.05696 . 1.
O3 O2- 4 e 0. 0.19358 0.25 . 1.
loop_
_atom_site_aniso_label
_atom_site_aniso_type_symbol
_atom_site_aniso_beta_11
_atom_site_aniso_beta_22
_atom_site_aniso_beta_33
_atom_site_aniso_beta_12
_atom_site_aniso_beta_13
_atom_site_aniso_beta_23
V1 V3+ 0.00122 0.00567 0.00232 0.0001 0.00041 -0.00037
V2 V3+ 0.00158 0.00412 0.00246 -0.00013 0.00073 -0.00011
O1 O2- 0.00166 0.00711 0.0052 -0.00009 0.00103 -0.00033
O2 O2- 0.00176 0.00539 0.00262 -0.00019 0.0008 -0.00045
O3 O2- 0.00187 0.00561 0.00295 0. 0.00088 0.
#End of TTdata_32587-ICSD