
#(C) 2022 by FIZ Karlsruhe - Leibniz Institute for Information Infrastructure.  All rights reserved.
data_31944-ICSD
_database_code_ICSD 31944
_audit_creation_date 1980-01-01
_audit_update_record 2007-08-01
_chemical_name_common 'Manganese diniobium oxide'
_chemical_formula_structural 'Mn Nb2 O6'
_chemical_formula_sum 'Mn1 Nb2 O6'
_chemical_name_structure_type Columbite#Nb2FeO6
_chemical_name_mineral Columbite-(Mn)
_exptl_crystal_density_diffrn 5.31
_citation_title 'Magnetische Struktur von Columbit, Fe Nb2 O6'
loop_
_citation_id
_citation_journal_full
_citation_year
_citation_journal_volume
_citation_page_first
_citation_page_last
_citation_journal_id_ASTM
primary 'Zeitschrift fuer Anorganische und Allgemeine Chemie (1950) (DE)' 1971
380 119 230 ZAACAB
loop_
_citation_author_citation_id
_citation_author_name
primary 'Weitzel, H.'
_cell_length_a 14.4204
_cell_length_b 5.7566
_cell_length_c 5.0784
_cell_angle_alpha 90.
_cell_angle_beta 90.
_cell_angle_gamma 90.
_cell_volume 421.57
_cell_formula_units_Z 4
_space_group_name_H-M_alt 'P b c n'
_space_group_IT_number 60
loop_
_space_group_symop_id
_space_group_symop_operation_xyz
1 'x, -y, z+1/2'
2 '-x+1/2, y+1/2, z'
3 'x+1/2, y+1/2, -z+1/2'
4 '-x, -y, -z'
5 '-x, y, -z+1/2'
6 'x+1/2, -y+1/2, -z'
7 '-x+1/2, -y+1/2, z+1/2'
8 'x, y, z'
loop_
_atom_type_symbol
_atom_type_oxidation_number
Mn2+ 2
Nb5+ 5
O2- -2
loop_
_atom_site_label
_atom_site_type_symbol
_atom_site_symmetry_multiplicity
_atom_site_Wyckoff_symbol
_atom_site_fract_x
_atom_site_fract_y
_atom_site_fract_z
_atom_site_B_iso_or_equiv
_atom_site_occupancy
Mn1 Mn2+ 4 c 0. 0.2989 0.25 0.69 1.
Nb1 Nb5+ 8 d 0.3398 0.3158 0.252 0.69 1.
O1 O2- 8 d 0.0975 0.1025 0.0759 0.69 1.
O2 O2- 8 d 0.4125 0.1229 0.1084 0.69 1.
O3 O2- 8 d 0.2536 0.1203 0.4027 0.69 1.
#End of TTdata_31944-ICSD