
#(C) 2022 by FIZ Karlsruhe - Leibniz Institute for Information Infrastructure.  All rights reserved.
data_69882-ICSD
_database_code_ICSD 69882
_audit_creation_date 1993-01-06
_audit_update_record 2004-04-01
_chemical_name_common 'Vanadium oxide (5/9) - LT'
_chemical_formula_structural 'V5 O9'
_chemical_formula_sum 'O9 V5'
_exptl_crystal_density_diffrn 4.69
_diffrn_ambient_temperature 105.
_citation_title 'Valence ordering in V5 O9 below 120K'
loop_
_citation_id
_citation_journal_full
_citation_year
_citation_journal_volume
_citation_page_first
_citation_page_last
_citation_journal_id_ASTM
primary 'Journal of Solid State Chemistry' 1991 92 380 385 JSSCBI
loop_
_citation_author_citation_id
_citation_author_name
primary 'le Page, Y.'
primary 'Bordet, P.'
primary 'Marezio, M.'
_cell_length_a 7.005
_cell_length_b 8.3629
_cell_length_c 10.9833
_cell_angle_alpha 91.98
_cell_angle_beta 108.34
_cell_angle_gamma 110.39
_cell_volume 564.91
_cell_formula_units_Z 4
_space_group_name_H-M_alt 'P -1'
_space_group_IT_number 2
loop_
_space_group_symop_id
_space_group_symop_operation_xyz
1 '-x, -y, -z'
2 'x, y, z'
loop_
_atom_type_symbol
_atom_type_oxidation_number
V3+ 3.2
V3+ 3.8
V3+ 3.88
V3+ 3.2
V3+ 3.88
O2- -2
loop_
_atom_site_label
_atom_site_type_symbol
_atom_site_symmetry_multiplicity
_atom_site_Wyckoff_symbol
_atom_site_fract_x
_atom_site_fract_y
_atom_site_fract_z
_atom_site_B_iso_or_equiv
_atom_site_occupancy
V1 V3+ 2 i 0.2476 0.00644 0.25577 0.154 1.
V2 V3+ 2 i 0.08784 0.78814 0.43148 0.145 1.
V3 V3+ 2 i 0.06836 0.43005 0.3836 0.137 1.
V4 V3+ 2 i 0.25282 0.00469 0.74738 0.166 1.
V5 V3+ 2 i 0.40567 0.20021 0.58288 0.148 1.
V6 V3+ 2 i 0.56393 0.42192 0.38984 0.13 1.
V7 V3+ 2 i 0.43144 0.21598 0.07272 0.145 1.
V8 V3+ 2 i 0.43737 0.57854 0.10758 0.147 1.
V9 V3+ 2 i 0.9083 0.19497 0.0658 0.133 1.
V10 V3+ 2 i 0.06156 0.40927 0.89304 0.131 1.
O1 O2- 2 i 0.01158 0.08486 0.20515 0.327 1.
O2 O2- 2 i 0.19564 0.3201 0.04711 0.311 1.
O3 O2- 2 i 0.14508 0.13046 0.62047 0.322 1.
O4 O2- 2 i 0.32331 0.36713 0.45764 0.294 1.
O5 O2- 2 i 0.29626 0.03269 0.44179 0.335 1.
O6 O2- 2 i 0.45495 0.24835 0.26523 0.347 1.
O7 O2- 2 i 0.63369 0.46457 0.0946 0.301 1.
O8 O2- 2 i 0.88012 0.20312 0.38738 0.318 1.
O9 O2- 2 i 0.02325 0.42614 0.21898 0.346 1.
O10 O2- 2 i 0.51656 0.07691 0.70866 0.341 1.
O11 O2- 2 i 0.30583 0.67559 0.453 0.312 1.
O12 O2- 2 i 0.66692 0.14495 0.12349 0.34 1.
O13 O2- 2 i 0.17414 0.63233 0.03956 0.297 1.
O14 O2- 2 i 0.2158 0.97946 0.06449 0.328 1.
O15 O2- 2 i 0.04474 0.75798 0.23547 0.343 1.
O16 O2- 2 i 0.12805 0.46083 0.59261 0.311 1.
O17 O2- 2 i 0.37117 0.1848 0.88572 0.344 1.
O18 O2- 2 i 0.49089 0.58984 0.28969 0.331 1.
#End of TTdata_69882-ICSD