
#(C) 2022 by FIZ Karlsruhe - Leibniz Institute for Information Infrastructure.  All rights reserved.
data_267175-ICSD
_database_code_ICSD 267175
_audit_creation_date 2019-08-01
_chemical_name_common 'Divanadium pentaoxide - gamma''
_chemical_formula_structural 'V2 O5'
_chemical_formula_sum 'O5 V2'
_exptl_crystal_density_diffrn 3.37
_citation_title

;
gamma-Na0.96V2O5. A new competitive cathode material for sodium-ion batteries
synthesized by a soft chemistry route
;
loop_
_citation_id
_citation_journal_full
_citation_year
_citation_journal_volume
_citation_page_first
_citation_page_last
_citation_journal_id_ASTM
primary 'Chemistry of Materials' 2018 30 5305 5314 CMATEX
loop_
_citation_author_citation_id
_citation_author_name
primary 'Emery, Nicolas'
primary 'Baddour-Hadjean, Rita'
primary 'Batyrbekuly, Dauren'
primary 'Laik, Barbara'
primary 'Bakenov, Zhumabay'
primary 'Pereira-Ramos, Jean-Pierre'
_cell_length_a 9.9484
_cell_length_b 3.5863
_cell_length_c 10.0459
_cell_angle_alpha 90.
_cell_angle_beta 90.
_cell_angle_gamma 90.
_cell_volume 358.42
_cell_formula_units_Z 4
_space_group_name_H-M_alt 'P n m a'
_space_group_IT_number 62
loop_
_space_group_symop_id
_space_group_symop_operation_xyz
1 'x+1/2, y, -z+1/2'
2 'x, -y+1/2, z'
3 '-x+1/2, y+1/2, z+1/2'
4 '-x, -y, -z'
5 '-x+1/2, -y, z+1/2'
6 '-x, y+1/2, -z'
7 'x+1/2, -y+1/2, -z+1/2'
8 'x, y, z'
loop_
_atom_type_symbol
_atom_type_oxidation_number
V5+ 5
O2- -2
loop_
_atom_site_label
_atom_site_type_symbol
_atom_site_symmetry_multiplicity
_atom_site_Wyckoff_symbol
_atom_site_fract_x
_atom_site_fract_y
_atom_site_fract_z
_atom_site_U_iso_or_equiv
_atom_site_occupancy
V1 V5+ 4 c 0.0713 0.25 0.1018 0.012 1.
V2 V5+ 4 c 0.3763 0.25 0.0156 0.012 1.
O1 O2- 4 c 0.0005 0.25 0.2403 0.027 1.
O2 O2- 4 c 0.2919 0.25 0.8828 0.027 1.
O3 O2- 4 c 0.4368 0.25 0.5418 0.027 1.
O4 O2- 4 c 0.0706 0.25 0.5355 0.027 1.
O5 O2- 4 c 0.2427 0.25 0.1405 0.027 1.
#End of TTdata_267175-ICSD