
#(C) 2022 by FIZ Karlsruhe - Leibniz Institute for Information Infrastructure.  All rights reserved.
data_51176-ICSD
_database_code_ICSD 51176
_audit_creation_date 2002-04-01
_audit_update_record 2008-08-01
_chemical_name_common 'Niobium oxide - Z'
_chemical_formula_structural 'Nb2 O5'
_chemical_formula_sum 'Nb2 O5'
_chemical_name_structure_type Nb2O5(HP)
_exptl_crystal_density_diffrn 6.4
_citation_title 'A new high-pressure modification of Nb2 O5'
loop_
_citation_id
_citation_journal_full
_citation_year
_citation_journal_volume
_citation_page_first
_citation_page_last
_citation_journal_id_ASTM
primary 'Journal of Solid State Chemistry' 1998 141 205 211 JSSCBI
loop_
_citation_author_citation_id
_citation_author_name
primary 'Zibrov, I.P.'
primary 'Filonenko, V.P.'
primary 'Werner, P.E.'
primary 'Marinder, B.O.'
primary 'Sundberg, M.'
_cell_length_a 5.2193
_cell_length_b 4.6995
_cell_length_c 5.9285
_cell_angle_alpha 90.
_cell_angle_beta 108.559
_cell_angle_gamma 90.
_cell_volume 137.85
_cell_formula_units_Z 2
_space_group_name_H-M_alt 'C 1 2 1'
_space_group_IT_number 5
loop_
_space_group_symop_id
_space_group_symop_operation_xyz
1 '-x, y, -z'
2 'x, y, z'
3 '-x+1/2, y+1/2, -z'
4 'x+1/2, y+1/2, z'
loop_
_atom_type_symbol
_atom_type_oxidation_number
Nb5+ 5
O2- -2
loop_
_atom_site_label
_atom_site_type_symbol
_atom_site_symmetry_multiplicity
_atom_site_Wyckoff_symbol
_atom_site_fract_x
_atom_site_fract_y
_atom_site_fract_z
_atom_site_B_iso_or_equiv
_atom_site_occupancy
Nb1 Nb5+ 4 c 0.2101 0. 0.2654 . 1.
O1 O2- 4 c 0.341 0.326 0.063 . 1.
O2 O2- 4 c 0.076 0.327 0.306 . 1.
O3 O2- 2 b 0. 0.782 0.5 . 1.
#End of TTdata_51176-ICSD