
#(C) 2022 by FIZ Karlsruhe - Leibniz Institute for Information Infrastructure.  All rights reserved.
data_81994-ICSD
_database_code_ICSD 81994
_audit_creation_date 1999-11-30
_audit_update_record 2005-10-01
_chemical_name_common 'Dimanganese divanadate(V) - beta, HT'
_chemical_formula_structural 'Mn2 (V2 O7)'
_chemical_formula_sum 'Mn2 O7 V2'
_chemical_name_structure_type Sc2Si2O7
_exptl_crystal_density_diffrn 3.8
_diffrn_ambient_temperature 323.
_citation_title

;
Synthesis, structures, magnetic properties, and phase transition of
manganese(II) divanadate: Mn2 V2 O7
;
loop_
_citation_id
_citation_journal_full
_citation_year
_citation_journal_volume
_citation_page_first
_citation_page_last
_citation_journal_id_ASTM
primary 'Journal of Solid State Chemistry' 1996 121 214 224 JSSCBI
loop_
_citation_author_citation_id
_citation_author_name
primary 'Liao, J.-H.'
primary 'Leroux, F.'
primary 'Payen, C.'
primary 'Guyomard, D.'
primary 'Piffard, Y.'
_cell_length_a 6.7129
_cell_length_b 8.7245
_cell_length_c 4.9693
_cell_angle_alpha 90.
_cell_angle_beta 103.591
_cell_angle_gamma 90.
_cell_volume 282.89
_cell_formula_units_Z 2
_space_group_name_H-M_alt 'C 1 2/m 1'
_space_group_IT_number 12
loop_
_space_group_symop_id
_space_group_symop_operation_xyz
1 '-x, y, -z'
2 '-x, -y, -z'
3 'x, -y, z'
4 'x, y, z'
5 '-x+1/2, y+1/2, -z'
6 '-x+1/2, -y+1/2, -z'
7 'x+1/2, -y+1/2, z'
8 'x+1/2, y+1/2, z'
loop_
_atom_type_symbol
_atom_type_oxidation_number
Mn2+ 2
V5+ 5
O2- -2
loop_
_atom_site_label
_atom_site_type_symbol
_atom_site_symmetry_multiplicity
_atom_site_Wyckoff_symbol
_atom_site_fract_x
_atom_site_fract_y
_atom_site_fract_z
_atom_site_B_iso_or_equiv
_atom_site_occupancy
Mn1 Mn2+ 4 g 0. 0.3109 0. . 1.
V1 V5+ 4 i 0.2341 0. 0.4032 . 1.
O1 O2- 2 c 0. 0. 0.5 . 1.
O2 O2- 4 i 0.5907 0. 0.2809 . 1.
O3 O2- 8 j 0.2322 0.1614 0.2123 . 1.
loop_
_atom_site_aniso_label
_atom_site_aniso_type_symbol
_atom_site_aniso_U_11
_atom_site_aniso_U_22
_atom_site_aniso_U_33
_atom_site_aniso_U_12
_atom_site_aniso_U_13
_atom_site_aniso_U_23
Mn1 Mn2+ 0.012 0.009 0.012 0. 0. 0.
V1 V5+ 0.014 0.01 0.008 0. 0. 0.
O1 O2- 0.028 0.042 0.041 0. 0.022 0.
O2 O2- 0.025 0.011 0.009 0. -0.001 0.
O3 O2- 0.018 0.015 0.017 0.005 0.004 0.005
#End of TTdata_81994-ICSD