
#(C) 2022 by FIZ Karlsruhe - Leibniz Institute for Information Infrastructure.  All rights reserved.
data_188096-ICSD
_database_code_ICSD 188096
_audit_creation_date 2014-02-01
_chemical_name_common 'Trimanganese divanadate'
_chemical_formula_structural 'Mn3 (V O4)2'
_chemical_formula_sum 'Mn3 O8 V2'
_exptl_crystal_density_diffrn 4.09
_diffrn_ambient_temperature 14.
_citation_title

;
On the soft magnetic properties of the compounds of the series Nax Mn4.5-x/2
(V O4)3 and the magnetic structure of h.t.- Mn3 (V O4)2 (x = 1)
;
loop_
_citation_id
_citation_journal_full
_citation_year
_citation_journal_volume
_citation_page_first
_citation_page_last
_citation_journal_id_ASTM
primary 'Dalton Transactions' 2013 42 7894 7900 DTARAF
loop_
_citation_author_citation_id
_citation_author_name
primary 'Clemens, O.'
primary 'Wright, A.J.'
primary 'Knight, K.S.'
primary 'Slater, P.R.'
_cell_length_a 7.0029
_cell_length_b 7.0029
_cell_length_c 19.586
_cell_angle_alpha 90.
_cell_angle_beta 90.
_cell_angle_gamma 90.
_cell_volume 960.51
_cell_formula_units_Z 6
_space_group_name_H-M_alt 'I -4 2 d'
_space_group_IT_number 122
loop_
_space_group_symop_id
_space_group_symop_operation_xyz
1 '-y, -x+1/2, z+1/4'
2 'y, -x, -z'
3 'y, x+1/2, z+1/4'
4 '-y, x, -z'
5 'x, -y+1/2, -z+1/4'
6 '-x, -y, z'
7 '-x, y+1/2, -z+1/4'
8 'x, y, z'
9 '-y+1/2, -x, z+3/4'
10 'y+1/2, -x+1/2, -z+1/2'
11 'y+1/2, x, z+3/4'
12 '-y+1/2, x+1/2, -z+1/2'
13 'x+1/2, -y, -z+3/4'
14 '-x+1/2, -y+1/2, z+1/2'
15 '-x+1/2, y, -z+3/4'
16 'x+1/2, y+1/2, z+1/2'
loop_
_atom_type_symbol
_atom_type_oxidation_number
Mn2+ 2
V5+ 5
O2- -2
loop_
_atom_site_label
_atom_site_type_symbol
_atom_site_symmetry_multiplicity
_atom_site_Wyckoff_symbol
_atom_site_fract_x
_atom_site_fract_y
_atom_site_fract_z
_atom_site_U_iso_or_equiv
_atom_site_occupancy
Mn1 Mn2+ 8 c 0. 0. 0.2266 0.001 1.
Mn2 Mn2+ 8 d 0.2408 0.25 0.125 0.001 1.
Mn3 Mn2+ 4 b 0. 0. 0.5 0.001 0.5
V1 V5+ 4 a 0. 0. 0. 0.001 1.
V2 V5+ 8 d 0.654 0.25 0.125 0.001 1.
O1 O2- 16 e 0.051 0.201 0.0484 0.0042 0.5
O2 O2- 16 e 0.05 0.209 0.0419 0.0042 0.5
O3 O2- 16 e 0.053 0.279 0.3925 0.0042 0.5
O4 O2- 16 e 0.04 0.272 0.4029 0.0042 0.5
O5 O2- 16 e 0.495 0.195 0.0626 0.0042 0.5
O6 O2- 16 e 0.498 0.225 0.0515 0.0042 0.5
#End of TTdata_188096-ICSD