
#(C) 2022 by FIZ Karlsruhe - Leibniz Institute for Information Infrastructure.  All rights reserved.
data_151724-ICSD
_database_code_ICSD 151724
_audit_creation_date 2006-10-01
_chemical_name_common 'Manganese diniobate'
_chemical_formula_structural 'Mn (Nb2 O6)'
_chemical_formula_sum 'Mn1 Nb2 O6'
_chemical_name_structure_type Columbite#Nb2FeO6
_exptl_crystal_density_diffrn 5.28
_citation_title

;
Columbite-type Fex Mn1-x Nb2 O6 solid solution: structural and magnetic
characterization
;
loop_
_citation_id
_citation_journal_full
_citation_year
_citation_journal_volume
_citation_page_first
_citation_page_last
_citation_journal_id_ASTM
primary 'Physical Chemistry Chemical Physics' 2004 6 4056 4061 PPCPFQ
loop_
_citation_author_citation_id
_citation_author_name
primary 'Tealdi, C.'
primary 'Mozzati, M.C.'
primary 'Malavasi, L.'
primary 'Ciabattoni, T.'
primary 'Amantea, R.'
primary 'Azzoni, C.B.'
_cell_length_a 14.4376
_cell_length_b 5.7665
_cell_length_c 5.0841
_cell_angle_alpha 90.
_cell_angle_beta 90.
_cell_angle_gamma 90.
_cell_volume 423.27
_cell_formula_units_Z 4
_space_group_name_H-M_alt 'P b c n'
_space_group_IT_number 60
loop_
_space_group_symop_id
_space_group_symop_operation_xyz
1 'x, -y, z+1/2'
2 '-x+1/2, y+1/2, z'
3 'x+1/2, y+1/2, -z+1/2'
4 '-x, -y, -z'
5 '-x, y, -z+1/2'
6 'x+1/2, -y+1/2, -z'
7 '-x+1/2, -y+1/2, z+1/2'
8 'x, y, z'
loop_
_atom_type_symbol
_atom_type_oxidation_number
Mn2+ 2
Nb5+ 5
O2- -2
loop_
_atom_site_label
_atom_site_type_symbol
_atom_site_symmetry_multiplicity
_atom_site_Wyckoff_symbol
_atom_site_fract_x
_atom_site_fract_y
_atom_site_fract_z
_atom_site_B_iso_or_equiv
_atom_site_occupancy
Mn1 Mn2+ 4 c 0. 0.3208 0.25 1.5 1.
Nb1 Nb5+ 8 d 0.3371 0.3185 0.2387 0.87 1.
O1 O2- 8 d 0.1034 0.105 0.053 1. 1.
O2 O2- 8 d 0.4178 0.116 0.088 0.51 1.
O3 O2- 8 d 0.238 0.12 0.414 0.75 1.
#End of TTdata_151724-ICSD