
#(C) 2022 by FIZ Karlsruhe - Leibniz Institute for Information Infrastructure.  All rights reserved.
data_95729-ICSD
_database_code_ICSD 95729
_audit_creation_date 2004-04-01
_chemical_name_common 'Niobium oxide'
_chemical_formula_structural 'Nb O'
_chemical_formula_sum 'Nb1 O1'
_exptl_crystal_density_diffrn 2.04
_citation_title 'The structure of Nb5 O12 F'
loop_
_citation_id
_citation_journal_full
_citation_year
_citation_journal_volume
_citation_page_first
_citation_page_last
_citation_journal_id_ASTM
primary 'Solid State Sciences' 2002 4 767 772 SSSCFJ
loop_
_citation_author_citation_id
_citation_author_name
primary 'Lidin, S.'
primary 'Rohrer, F.'
primary 'Larsson, A.K.'
_cell_length_a 3.656
_cell_length_b 3.936
_cell_length_c 6.153
_cell_angle_alpha 90.
_cell_angle_beta 90.
_cell_angle_gamma 90.
_cell_volume 88.54
_cell_formula_units_Z 1
_space_group_name_H-M_alt 'P m m m'
_space_group_IT_number 47
loop_
_space_group_symop_id
_space_group_symop_operation_xyz
1 'x, -y, z'
2 '-x, y, z'
3 'x, y, -z'
4 '-x, -y, -z'
5 '-x, y, -z'
6 'x, -y, -z'
7 '-x, -y, z'
8 'x, y, z'
loop_
_atom_type_symbol
_atom_type_oxidation_number
Nb2+ 2
O2- -2
loop_
_atom_site_label
_atom_site_type_symbol
_atom_site_symmetry_multiplicity
_atom_site_Wyckoff_symbol
_atom_site_fract_x
_atom_site_fract_y
_atom_site_fract_z
_atom_site_B_iso_or_equiv
_atom_site_occupancy
Nb1 Nb2+ 1 a 0. 0. 0. . 1.
O1 O2- 1 e 0. 0.5 0. . 1.
loop_
_atom_site_aniso_label
_atom_site_aniso_type_symbol
_atom_site_aniso_U_11
_atom_site_aniso_U_22
_atom_site_aniso_U_33
_atom_site_aniso_U_12
_atom_site_aniso_U_13
_atom_site_aniso_U_23
Nb1 Nb2+ 0.041 0.014 0.01 0. 0. 0.
O1 O2- 0.02 0.011 0.014 0. 0. 0.
#End of TTdata_95729-ICSD