
#(C) 2022 by FIZ Karlsruhe - Leibniz Institute for Information Infrastructure.  All rights reserved.
data_73802-ICSD
_database_code_ICSD 73802
_audit_creation_date 1995-01-10
_chemical_name_common 'Vanadium niobium oxide (1/9/24.9)'
_chemical_formula_structural 'V Nb9 O24.9'
_chemical_formula_sum 'Nb9 O24.9 V1'
_chemical_name_structure_type Nb9PO25
_exptl_crystal_density_diffrn 4.54
_diffrn_ambient_temperature 295.
_citation_title
'VM9O25 (M=Nb, Ta), a combination of tetrahedral VO4 and octahedral MO6 units'
loop_
_citation_id
_citation_journal_full
_citation_year
_citation_journal_volume
_citation_page_first
_citation_page_last
_citation_journal_id_ASTM
primary 'Journal of Solid State Chemistry' 1993 102 261 266 JSSCBI
loop_
_citation_author_citation_id
_citation_author_name
primary 'Casais, M.T.'
primary 'Gutierrez Puebla, E.'
primary 'Monge, M.A.'
primary 'Rasines, I.'
primary 'Ruiz Valero, C.'
_cell_length_a 15.69
_cell_length_b 15.69
_cell_length_c 3.8172
_cell_angle_alpha 90.
_cell_angle_beta 90.
_cell_angle_gamma 90.
_cell_volume 939.7
_cell_formula_units_Z 2
_space_group_name_H-M_alt 'I -4'
_space_group_IT_number 82
loop_
_space_group_symop_id
_space_group_symop_operation_xyz
1 '-y, x, -z'
2 'y, -x, -z'
3 '-x, -y, z'
4 'x, y, z'
5 '-y+1/2, x+1/2, -z+1/2'
6 'y+1/2, -x+1/2, -z+1/2'
7 '-x+1/2, -y+1/2, z+1/2'
8 'x+1/2, y+1/2, z+1/2'
loop_
_atom_type_symbol
_atom_type_oxidation_number
Nb4+ 4.98
V5+ 5
O2- -2
loop_
_atom_site_label
_atom_site_type_symbol
_atom_site_symmetry_multiplicity
_atom_site_Wyckoff_symbol
_atom_site_fract_x
_atom_site_fract_y
_atom_site_fract_z
_atom_site_U_iso_or_equiv
_atom_site_occupancy
Nb1 Nb4+ 2 b 0. 0. 0.5 . 1.
Nb2 Nb4+ 8 g 0.2811 0.3948 0.0022 . 1.
Nb3 Nb4+ 8 g 0.3821 0.1749 0.0001 . 1.
V1 V5+ 2 c 0. 0.5 0.25 . 1.
O1 O2- 8 g 0.2189 0.5132 0.0085 0.009 1.
O2 O2- 8 g 0.116 0.0497 0.4888 0.01 1.
O3 O2- 8 g 0.1468 0.3423 0.0042 0.006 1.
O4 O2- 8 g 0.3237 0.283 0.0085 0.01 1.
O5 O2- 8 g 0.2512 0.1108 0.0128 0.005 1.
O6 O2- 2 a 0. 0. 0. 0.009 0.9
O7 O2- 8 g 0.053 0.5743 0.0231 0.005 1.
loop_
_atom_site_aniso_label
_atom_site_aniso_type_symbol
_atom_site_aniso_U_11
_atom_site_aniso_U_22
_atom_site_aniso_U_33
_atom_site_aniso_U_12
_atom_site_aniso_U_13
_atom_site_aniso_U_23
Nb1 Nb4+ 0.0089 0.0089 0.0473 0. 0. 0.
Nb2 Nb4+ 0.0046 0.0094 0.0065 -0.0007 -0.0029 -0.0031
Nb3 Nb4+ 0.0093 0.0062 0.007 0.0028 0.0004 0.0021
V1 V5+ 0.0094 0.0094 0.0109 0. 0. 0.
#End of TTdata_73802-ICSD