
#(C) 2022 by FIZ Karlsruhe - Leibniz Institute for Information Infrastructure.  All rights reserved.
data_9091-ICSD
_database_code_ICSD 9091
_audit_creation_date 1980-01-01
_audit_update_record 2016-08-01
_chemical_name_common 'Manganese(III) oxide - HT'
_chemical_formula_structural 'Mn2 O3'
_chemical_formula_sum 'Mn2 O3'
_chemical_name_structure_type Bixbyite#(MnFe)O3
_exptl_crystal_density_diffrn 5.03
_citation_title

;
Structures of alpha-(Mn2 O3), (Mn.983 Fe.017)2 O3, (Mn.37 Fe.63)2 O3 and
Relation to Magnetic Ordering
;
loop_
_citation_id
_citation_journal_full
_citation_year
_citation_journal_volume
_citation_page_first
_citation_page_last
_citation_journal_id_ASTM
primary

;
Acta Crystallographica, Section B: Structural Crystallography and Crystal
Chemistry
; 1971 27 821 828 ACBCAR
loop_
_citation_author_citation_id
_citation_author_name
primary 'Geller, S.'
_cell_length_a 9.4146
_cell_length_b 9.4146
_cell_length_c 9.4146
_cell_angle_alpha 90.
_cell_angle_beta 90.
_cell_angle_gamma 90.
_cell_volume 834.46
_cell_formula_units_Z 16
_space_group_name_H-M_alt 'I a -3'
_space_group_IT_number 206
loop_
_space_group_symop_id
_space_group_symop_operation_xyz
1 '-z, x, y+1/2'
2 'z, x+1/2, -y'
3 'z+1/2, -x, y'
4 '-z, -x, -y'
5 'y+1/2, -z, x'
6 '-y, z, x+1/2'
7 'y, z+1/2, -x'
8 '-y, -z, -x'
9 'x, y+1/2, -z'
10 'x+1/2, -y, z'
11 '-x, y, z+1/2'
12 '-x, -y, -z'
13 'z, -x, -y+1/2'
14 '-z, -x+1/2, y'
15 '-z+1/2, x, -y'
16 'z, x, y'
17 '-y+1/2, z, -x'
18 'y, -z, -x+1/2'
19 '-y, -z+1/2, x'
20 'y, z, x'
21 '-x, -y+1/2, z'
22 '-x+1/2, y, -z'
23 'x, -y, -z+1/2'
24 'x, y, z'
25 '-z+1/2, x+1/2, y'
26 'z+1/2, x, -y+1/2'
27 'z, -x+1/2, y+1/2'
28 '-z+1/2, -x+1/2, -y+1/2'
29 'y, -z+1/2, x+1/2'
30 '-y+1/2, z+1/2, x'
31 'y+1/2, z, -x+1/2'
32 '-y+1/2, -z+1/2, -x+1/2'
33 'x+1/2, y, -z+1/2'
34 'x, -y+1/2, z+1/2'
35 '-x+1/2, y+1/2, z'
36 '-x+1/2, -y+1/2, -z+1/2'
37 'z+1/2, -x+1/2, -y'
38 '-z+1/2, -x, y+1/2'
39 '-z, x+1/2, -y+1/2'
40 'z+1/2, x+1/2, y+1/2'
41 '-y, z+1/2, -x+1/2'
42 'y+1/2, -z+1/2, -x'
43 '-y+1/2, -z, x+1/2'
44 'y+1/2, z+1/2, x+1/2'
45 '-x+1/2, -y, z+1/2'
46 '-x, y+1/2, -z+1/2'
47 'x+1/2, -y+1/2, -z'
48 'x+1/2, y+1/2, z+1/2'
loop_
_atom_type_symbol
_atom_type_oxidation_number
Mn3+ 3
O2- -2
loop_
_atom_site_label
_atom_site_type_symbol
_atom_site_symmetry_multiplicity
_atom_site_Wyckoff_symbol
_atom_site_fract_x
_atom_site_fract_y
_atom_site_fract_z
_atom_site_B_iso_or_equiv
_atom_site_occupancy
Mn1 Mn3+ 8 a 0. 0. 0. . 1.
Mn2 Mn3+ 24 d 0.28508 0. 0.25 . 1.
O1 O2- 48 e 0.08347 0.37087 0.14708 . 1.
loop_
_atom_site_aniso_label
_atom_site_aniso_type_symbol
_atom_site_aniso_beta_11
_atom_site_aniso_beta_22
_atom_site_aniso_beta_33
_atom_site_aniso_beta_12
_atom_site_aniso_beta_13
_atom_site_aniso_beta_23
Mn1 Mn3+ 0.00089 0.00089 0.00089 0.00012 0.00012 0.00012
Mn2 Mn3+ 0.00109 0.00229 0.00157 0. 0. 0.00078
O1 O2- 0.00247 0.00138 0.00202 0.00018 -0.00131 -0.00012
#End of TTdata_9091-ICSD