
#(C) 2022 by FIZ Karlsruhe - Leibniz Institute for Information Infrastructure.  All rights reserved.
data_35181-ICSD
_database_code_ICSD 35181
_audit_creation_date 1982-12-31
_audit_update_record 2012-08-01
_chemical_name_common 'Niobium(IV) oxide - beta'
_chemical_formula_structural 'Nb O2'
_chemical_formula_sum 'Nb1 O2'
_exptl_crystal_density_diffrn 5.9
_citation_title 'Zur Darstellung und Kristallstruktur von beta-Nb O2'
loop_
_citation_id
_citation_journal_full
_citation_year
_citation_journal_volume
_citation_page_first
_citation_page_last
_citation_journal_id_ASTM
primary

;
Zeitschrift fuer Naturforschung, Teil B: Anorganische Chemie, Organische
Chemie
; 1982 37 1361 1368 ZNBAD2
loop_
_citation_author_citation_id
_citation_author_name
primary 'Schweizer, H.J.'
primary 'Gruehn, R.'
_cell_length_a 9.693
_cell_length_b 9.693
_cell_length_c 5.985
_cell_angle_alpha 90.
_cell_angle_beta 90.
_cell_angle_gamma 90.
_cell_volume 562.32
_cell_formula_units_Z 16
_space_group_name_H-M_alt 'I 41'
_space_group_IT_number 80
loop_
_space_group_symop_id
_space_group_symop_operation_xyz
1 'y, -x+1/2, z+1/4'
2 '-y, x+1/2, z+1/4'
3 '-x, -y, z'
4 'x, y, z'
5 'y+1/2, -x, z+3/4'
6 '-y+1/2, x, z+3/4'
7 '-x+1/2, -y+1/2, z+1/2'
8 'x+1/2, y+1/2, z+1/2'
loop_
_atom_type_symbol
_atom_type_oxidation_number
Nb4+ 4
O2- -2
loop_
_atom_site_label
_atom_site_type_symbol
_atom_site_symmetry_multiplicity
_atom_site_Wyckoff_symbol
_atom_site_fract_x
_atom_site_fract_y
_atom_site_fract_z
_atom_site_U_iso_or_equiv
_atom_site_occupancy
Nb1 Nb4+ 8 b 0.2379 0.0076 0.2799 . 1.
Nb2 Nb4+ 8 b 0.2455 0.5091 0.2304 . 1.
O1 O2- 8 b 0.1026 0.6497 0.2577 0.001 1.
O2 O2- 8 b 0.6102 0.1358 0.2411 0.0254 1.
O3 O2- 8 b 0.1391 0.3914 0.0064 0.0027 1.
O4 O2- 8 b 0.1038 0.15 0.2484 0.346 1.
loop_
_atom_site_aniso_label
_atom_site_aniso_type_symbol
_atom_site_aniso_U_11
_atom_site_aniso_U_22
_atom_site_aniso_U_33
_atom_site_aniso_U_12
_atom_site_aniso_U_13
_atom_site_aniso_U_23
Nb1 Nb4+ 0.01 0.0058 0.0042 0.0056 -0.0056 -0.0045
Nb2 Nb4+ 0.0028 0.0019 0.0036 -0.0016 -0.0016 -0.0016
#End of TTdata_35181-ICSD