
#(C) 2022 by FIZ Karlsruhe - Leibniz Institute for Information Infrastructure.  All rights reserved.
data_40850-ICSD
_database_code_ICSD 40850
_audit_creation_date 2000-07-15
_audit_update_record 2007-08-01
_chemical_name_common 'Manganese divanadate'
_chemical_formula_structural 'Mn (V2 O6)'
_chemical_formula_sum 'Mn1 O6 V2'
_chemical_name_structure_type ThTi2O6
_exptl_crystal_density_diffrn 4.1
_citation_title
'Zur Kristallchemie von Oxovanadaten: gamma-Co V2 O6 und Mn V2 O6'
loop_
_citation_id
_citation_journal_full
_citation_year
_citation_journal_volume
_citation_page_first
_citation_page_last
_citation_journal_id_ASTM
primary 'Journal of Alloys and Compounds' 1991 176 39 46 JALCEU
loop_
_citation_author_citation_id
_citation_author_name
primary 'Mueller Buschbaum, H.'
primary 'Kobel, M.'
_cell_length_a 9.289
_cell_length_b 3.535
_cell_length_c 6.763
_cell_angle_alpha 90.
_cell_angle_beta 112.64
_cell_angle_gamma 90.
_cell_volume 204.96
_cell_formula_units_Z 2
_space_group_name_H-M_alt 'C 1 2/m 1'
_space_group_IT_number 12
loop_
_space_group_symop_id
_space_group_symop_operation_xyz
1 '-x, y, -z'
2 '-x, -y, -z'
3 'x, -y, z'
4 'x, y, z'
5 '-x+1/2, y+1/2, -z'
6 '-x+1/2, -y+1/2, -z'
7 'x+1/2, -y+1/2, z'
8 'x+1/2, y+1/2, z'
loop_
_atom_type_symbol
_atom_type_oxidation_number
Mn2+ 2
V5+ 5
O2- -2
loop_
_atom_site_label
_atom_site_type_symbol
_atom_site_symmetry_multiplicity
_atom_site_Wyckoff_symbol
_atom_site_fract_x
_atom_site_fract_y
_atom_site_fract_z
_atom_site_B_iso_or_equiv
_atom_site_occupancy
Mn1 Mn2+ 2 c 0. 0. 0.5 0.99 1.
V1 V5+ 4 i 0.1906 0. 0.1476 0.51 1.
O1 O2- 4 i 0.343 0. 0.3841 0.99 1.
O2 O2- 4 i 0.0344 0. 0.2116 0.96 1.
O3 O2- 4 i 0.6939 0. 0.064 0.78 1.
#End of TTdata_40850-ICSD