
#(C) 2022 by FIZ Karlsruhe - Leibniz Institute for Information Infrastructure.  All rights reserved.
data_24111-ICSD
_database_code_ICSD 24111
_audit_creation_date 2008-07-07
_audit_update_record 2012-02-01
_chemical_name_common 'Niobium oxide (12/29) - LT'
_chemical_formula_structural 'Nb12 O29'
_chemical_formula_sum 'Nb12 O29'
_exptl_crystal_density_diffrn 4.58
_citation_title 'The crystal structure of Nb12 O29 (mon)'
loop_
_citation_id
_citation_journal_full
_citation_year
_citation_journal_volume
_citation_page_first
_citation_page_last
_citation_journal_id_ASTM
primary 'Acta Chemica Scandinavica ' 1966 20 871 880 ACSAA4
loop_
_citation_author_citation_id
_citation_author_name
primary 'Norin, R.'
_cell_length_a 20.72
_cell_length_b 3.832
_cell_length_c 30.0764
_cell_angle_alpha 90.
_cell_angle_beta 106.451
_cell_angle_gamma 90.
_cell_volume 2290.28
_cell_formula_units_Z 4
_space_group_name_H-M_alt 'C 1 2/c 1'
_space_group_IT_number 15
loop_
_space_group_symop_id
_space_group_symop_operation_xyz
1 'x, -y, z+1/2'
2 '-x, -y, -z'
3 '-x, y, -z+1/2'
4 'x, y, z'
5 'x+1/2, -y+1/2, z+1/2'
6 '-x+1/2, -y+1/2, -z'
7 '-x+1/2, y+1/2, -z+1/2'
8 'x+1/2, y+1/2, z'
loop_
_atom_type_symbol
_atom_type_oxidation_number
Nb5+ 5
Nb4+ 4
Nb5+ 5
O2- -2
loop_
_atom_site_label
_atom_site_type_symbol
_atom_site_symmetry_multiplicity
_atom_site_Wyckoff_symbol
_atom_site_fract_x
_atom_site_fract_y
_atom_site_fract_z
_atom_site_B_iso_or_equiv
_atom_site_occupancy
Nb1 Nb5+ 8 f 0.2791 0.25 0.066 . 1.
Nb2 Nb5+ 8 f 0.0926 0.25 0.0665 . 1.
Nb3 Nb5+ 8 f 0.4585 0.25 0.0642 . 1.
Nb4 Nb4+ 8 f 0.3325 0.25 0.2015 . 1.
Nb5 Nb5+ 8 f 0.1488 0.25 0.2012 . 1.
Nb6 Nb5+ 8 f 0.517 0.25 0.1999 . 1.
O1 O2- 4 c 0.25 0.25 0. . 1.
O2 O2- 8 f 0.061 0.25 0.006 . 1.
O3 O2- 8 f 0.182 0.25 0.068 . 1.
O4 O2- 8 f 0.012 0.25 0.429 . 1.
O5 O2- 8 f 0.235 0.25 0.428 . 1.
O6 O2- 8 f 0.567 0.25 0.073 . 1.
O7 O2- 8 f 0.371 0.25 0.067 . 1.
O8 O2- 8 f 0.316 0.25 0.141 . 1.
O9 O2- 8 f 0.12 0.25 0.14 . 1.
O10 O2- 8 f 0.485 0.25 0.141 . 1.
O11 O2- 8 f 0.439 0.25 0.22 . 1.
O12 O2- 8 f 0.238 0.25 0.208 . 1.
O13 O2- 8 f 0.041 0.25 0.204 . 1.
O14 O2- 8 f 0.161 0.25 0.277 . 1.
O15 O2- 8 f 0.373 0.25 0.29 . 1.
#End of TTdata_24111-ICSD