
#(C) 2022 by FIZ Karlsruhe - Leibniz Institute for Information Infrastructure.  All rights reserved.
data_196175-ICSD
_database_code_ICSD 196175
_audit_creation_date 2016-02-01
_chemical_name_common 'Vanadium dioxide'
_chemical_formula_structural 'V O2'
_chemical_formula_sum 'O2 V1'
_chemical_name_structure_type VO2(HT)
_exptl_crystal_density_diffrn 4.03
_diffrn_ambient_temperature 293.
_citation_title

;
Structurally restricted phase transitions in V O2 (B) and their impact on
transport properties
;
loop_
_citation_id
_citation_journal_full
_citation_year
_citation_journal_volume
_citation_page_first
_citation_page_last
_citation_journal_id_ASTM
primary 'Journal of Physical Chemistry C' 2015 119 25085 25092 JPCCCK
loop_
_citation_author_citation_id
_citation_author_name
primary 'Popuri, S.R.'
primary 'Artemenko, A.'
primary 'Decourt, R.'
primary 'Josse, M.'
primary 'Chung, U.C.'
primary 'Michau, D.'
primary 'Maglione, M.'
primary 'Villesuzanne, A.'
primary 'Pollet, M.'
_cell_length_a 12.0414
_cell_length_b 3.6892
_cell_length_c 6.4299
_cell_angle_alpha 90.
_cell_angle_beta 106.95
_cell_angle_gamma 90.
_cell_volume 273.23
_cell_formula_units_Z 8
_space_group_name_H-M_alt 'C 1 2/m 1'
_space_group_IT_number 12
loop_
_space_group_symop_id
_space_group_symop_operation_xyz
1 '-x, y, -z'
2 '-x, -y, -z'
3 'x, -y, z'
4 'x, y, z'
5 '-x+1/2, y+1/2, -z'
6 '-x+1/2, -y+1/2, -z'
7 'x+1/2, -y+1/2, z'
8 'x+1/2, y+1/2, z'
loop_
_atom_type_symbol
_atom_type_oxidation_number
V4+ 4
O2- -2
loop_
_atom_site_label
_atom_site_type_symbol
_atom_site_symmetry_multiplicity
_atom_site_Wyckoff_symbol
_atom_site_fract_x
_atom_site_fract_y
_atom_site_fract_z
_atom_site_B_iso_or_equiv
_atom_site_occupancy
V1 V4+ 4 i 0.1954 0. 0.2772 . 1.
V2 V4+ 4 i 0.0969 0. 0.6956 . 1.
O1 O2- 4 i 0.1308 0. 0.002 . 1.
O2 O2- 4 i 0.266 0. 0.67 . 1.
O3 O2- 4 i 0.0535 0. 0.352 . 1.
O4 O2- 4 i 0.3687 0. 0.303 . 1.
#End of TTdata_196175-ICSD