
#(C) 2022 by FIZ Karlsruhe - Leibniz Institute for Information Infrastructure.  All rights reserved.
data_422974-ICSD
_database_code_ICSD 422974
_audit_creation_date 2012-02-01
_chemical_name_common 'Trimanganese bis(vanadate(V)) - alpha'
_chemical_formula_structural 'Mn3 (V O4)2'
_chemical_formula_sum 'Mn3 O8 V2'
_chemical_name_structure_type Co3(AsO4)2(tI78)
_exptl_crystal_density_diffrn 4.07
_citation_title 'New phases in the system Li Mn V O4 - Mn(1.5) V O4'
loop_
_citation_id
_citation_journal_full
_citation_year
_citation_journal_volume
_citation_page_first
_citation_page_last
_citation_journal_id_ASTM
primary 'Journal of Solid State Chemistry' 2011 184 2640 2647 JSSCBI
loop_
_citation_author_citation_id
_citation_author_name
primary 'Clemens, O.'
primary 'Haberkorn, R.'
primary 'Beck, H.P.'
_cell_length_a 7.0073
_cell_length_b 7.0073
_cell_length_c 19.6981
_cell_angle_alpha 90.
_cell_angle_beta 90.
_cell_angle_gamma 90.
_cell_volume 967.22
_cell_formula_units_Z 6
_space_group_name_H-M_alt 'I -4 2 d'
_space_group_IT_number 122
loop_
_space_group_symop_id
_space_group_symop_operation_xyz
1 '-y, -x+1/2, z+1/4'
2 'y, -x, -z'
3 'y, x+1/2, z+1/4'
4 '-y, x, -z'
5 'x, -y+1/2, -z+1/4'
6 '-x, -y, z'
7 '-x, y+1/2, -z+1/4'
8 'x, y, z'
9 '-y+1/2, -x, z+3/4'
10 'y+1/2, -x+1/2, -z+1/2'
11 'y+1/2, x, z+3/4'
12 '-y+1/2, x+1/2, -z+1/2'
13 'x+1/2, -y, -z+3/4'
14 '-x+1/2, -y+1/2, z+1/2'
15 '-x+1/2, y, -z+3/4'
16 'x+1/2, y+1/2, z+1/2'
loop_
_atom_type_symbol
_atom_type_oxidation_number
Mn2+ 2
V5+ 5
O2- -2
loop_
_atom_site_label
_atom_site_type_symbol
_atom_site_symmetry_multiplicity
_atom_site_Wyckoff_symbol
_atom_site_fract_x
_atom_site_fract_y
_atom_site_fract_z
_atom_site_B_iso_or_equiv
_atom_site_occupancy
Mn1 Mn2+ 8 c 0. 0. 0.2269 0.97 1.
Mn2 Mn2+ 8 d 0.2403 0.25 0.125 0.97 1.
Mn3 Mn2+ 4 b 0. 0. 0.5 0.97 0.491
V1 V5+ 4 a 0. 0. 0. 0.42 1.
V2 V5+ 8 d 0.654 0.25 0.125 0.42 1.
O1 O2- 16 e 0.0515 0.1976 0.0438 1.57 1.
O2 O2- 16 e 0.0523 0.272 0.3968 1.57 1.
O3 O2- 16 e 0.4979 0.2166 0.0585 1.57 1.
#End of TTdata_422974-ICSD