
#(C) 2022 by FIZ Karlsruhe - Leibniz Institute for Information Infrastructure.  All rights reserved.
data_92361-ICSD
_database_code_ICSD 92361
_audit_creation_date 2002-10-01
_chemical_name_common 'Trimanganese bis(vanadate(V))'
_chemical_formula_structural 'Mn3 (V O4)2'
_chemical_formula_sum 'Mn3 O8 V2'
_chemical_name_structure_type Ni3(VO4)2
_exptl_crystal_density_diffrn 4.21
_diffrn_ambient_temperature 153.
_citation_title
'Crystal growth, structure, and properties of manganese orthovanadate'
loop_
_citation_id
_citation_journal_full
_citation_year
_citation_journal_volume
_citation_page_first
_citation_page_last
_citation_journal_id_ASTM
primary 'Solid State Sciences' 2000 2 99 107 SSSCFJ
loop_
_citation_author_citation_id
_citation_author_name
primary 'Wang, X.-D.'
primary 'Liu, Z.-Q.'
primary 'Ambrosini, A.'
primary 'Maignan, A.'
primary 'Stern, C.L.'
primary 'Poeppelmeier, K.R.'
primary 'Dravid, V.P.'
_cell_length_a 6.247
_cell_length_b 11.728
_cell_length_c 8.491
_cell_angle_alpha 90.
_cell_angle_beta 90.
_cell_angle_gamma 90.
_cell_volume 622.09
_cell_formula_units_Z 4
_space_group_name_H-M_alt 'C m c a'
_space_group_IT_number 64
loop_
_space_group_symop_id
_space_group_symop_operation_xyz
1 '-x, -y+1/2, z+1/2'
2 '-x, y+1/2, -z+1/2'
3 '-x, y, z'
4 '-x, -y, -z'
5 'x, y+1/2, -z+1/2'
6 'x, -y+1/2, z+1/2'
7 'x, -y, -z'
8 'x, y, z'
9 '-x+1/2, -y, z+1/2'
10 '-x+1/2, y, -z+1/2'
11 '-x+1/2, y+1/2, z'
12 '-x+1/2, -y+1/2, -z'
13 'x+1/2, y, -z+1/2'
14 'x+1/2, -y, z+1/2'
15 'x+1/2, -y+1/2, -z'
16 'x+1/2, y+1/2, z'
loop_
_atom_type_symbol
_atom_type_oxidation_number
Mn2+ 2
V5+ 5
O2- -2
loop_
_atom_site_label
_atom_site_type_symbol
_atom_site_symmetry_multiplicity
_atom_site_Wyckoff_symbol
_atom_site_fract_x
_atom_site_fract_y
_atom_site_fract_z
_atom_site_B_iso_or_equiv
_atom_site_occupancy
Mn1 Mn2+ 4 a 0. 0. 0. 0.53 1.
Mn2 Mn2+ 8 e 0.25 0.36274 0.25 0.48 1.
V1 V5+ 8 f 0. 0.12019 0.37962 0.28 1.
O1 O2- 8 f 0. 0.2456 0.2745 0.52 1.
O2 O2- 8 f 0. 0.0003 0.2486 0.44 1.
O3 O2- 16 g 0.2775 0.1177 0.0041 0.56 1.
#End of TTdata_92361-ICSD