
#(C) 2022 by FIZ Karlsruhe - Leibniz Institute for Information Infrastructure.  All rights reserved.
data_262807-ICSD
_database_code_ICSD 262807
_audit_creation_date 2012-08-01
_audit_update_record 2013-02-01
_chemical_name_common 'Manganese(III) vanadium oxide (5/1/8)'
_chemical_formula_structural 'Mn5 V O8'
_chemical_formula_sum 'Mn5 O8 V1'
_exptl_crystal_density_diffrn 4.63
_citation_title
'Synthesis and characterization of the new mixed valent compound Mn5 V O8'
loop_
_citation_id
_citation_journal_full
_citation_year
_citation_journal_volume
_citation_page_first
_citation_page_last
_citation_journal_id_ASTM
primary 'Zeitschrift fuer Anorganische und Allgemeine Chemie (1950) (DE)' 2012
638 1134 1140 ZAACAB
loop_
_citation_author_citation_id
_citation_author_name
primary 'Clemens, O.'
primary 'Haberkorn, R.'
primary 'Kohlmann, H.'
primary 'Springborg, M.'
primary 'Beck, H.P.'
_cell_length_a 5.432
_cell_length_b 6.2066
_cell_length_c 10.2443
_cell_angle_alpha 107.035
_cell_angle_beta 99.469
_cell_angle_gamma 90.422
_cell_volume 325.16
_cell_formula_units_Z 2
_space_group_name_H-M_alt 'P -1'
_space_group_IT_number 2
loop_
_space_group_symop_id
_space_group_symop_operation_xyz
1 '-x, -y, -z'
2 'x, y, z'
loop_
_atom_type_symbol
_atom_type_oxidation_number
Mn3+ 3
Mn2+ 2
V5+ 5
O2- -2
loop_
_atom_site_label
_atom_site_type_symbol
_atom_site_symmetry_multiplicity
_atom_site_Wyckoff_symbol
_atom_site_fract_x
_atom_site_fract_y
_atom_site_fract_z
_atom_site_B_iso_or_equiv
_atom_site_occupancy
Mn1 Mn3+ 1 a 0. 0. 0. 0.54 1.
Mn2 Mn3+ 1 c 0. 0.5 0. 0.54 1.
Mn3 Mn2+ 2 i 0.244 0.362 0.7315 0.54 1.
Mn4 Mn2+ 2 i 0.503 0.249 0.0011 0.54 1.
Mn5 Mn2+ 2 i 0.257 0.892 0.2629 0.54 1.
Mn6 Mn2+ 2 i 0.254 0.375 0.2632 0.54 1.
V1 V5+ 2 i 0.769 0.212 0.4259 0.1 1.
O1 O2- 2 i 0.639 0.405 0.368 0.9 1.
O2 O2- 2 i 0.354 0.041 0.63 0.9 1.
O3 O2- 2 i 0.887 0.357 0.12 0.9 1.
O4 O2- 2 i 0.093 0.216 0.895 0.9 1.
O5 O2- 2 i 0.387 0.574 0.138 0.9 1.
O6 O2- 2 i 0.333 0.057 0.113 0.9 1.
O7 O2- 2 i 0.081 0.184 0.372 0.9 1.
O8 O2- 2 i 0.134 0.694 0.387 0.9 1.
#End of TTdata_262807-ICSD