
#(C) 2022 by FIZ Karlsruhe - Leibniz Institute for Information Infrastructure.  All rights reserved.
data_15798-ICSD
_database_code_ICSD 15798
_audit_creation_date 1986-09-25
_audit_update_record 2018-02-01
_chemical_name_common 'Vanadium pentaoxide'
_chemical_formula_structural 'V2 O5'
_chemical_formula_sum 'O5 V2'
_chemical_name_mineral Shcherbinaite
_exptl_crystal_density_diffrn 3.37
_citation_title 'The crystal structure of vanadium pentoxide'
loop_
_citation_id
_citation_journal_full
_citation_year
_citation_journal_volume
_citation_page_first
_citation_page_last
_citation_journal_id_ASTM
primary 'Zeitschrift fuer Kristallographie' 1961 115 110 131 ZEKRDZ
loop_
_citation_author_citation_id
_citation_author_name
primary 'Bachmann, H.G.'
primary 'Ahmed, F.R.'
primary 'Barnes, W.H.'
_cell_length_a 11.51
_cell_length_b 4.369
_cell_length_c 3.563
_cell_angle_alpha 90.
_cell_angle_beta 90.
_cell_angle_gamma 90.
_cell_volume 179.17
_cell_formula_units_Z 2
_space_group_name_H-M_alt 'P m n m S'
_space_group_IT_number 59
loop_
_space_group_symop_id
_space_group_symop_operation_xyz
1 'x+1/2, -y, -z+1/2'
2 'x+1/2, -y, z+1/2'
3 'x, y, -z'
4 '-x, y, z'
5 '-x+1/2, -y, z+1/2'
6 '-x+1/2, -y, -z+1/2'
7 '-x, y, -z'
8 'x, y, z'
loop_
_atom_type_symbol
_atom_type_oxidation_number
V5+ 5
O2- -2
loop_
_atom_site_label
_atom_site_type_symbol
_atom_site_symmetry_multiplicity
_atom_site_Wyckoff_symbol
_atom_site_fract_x
_atom_site_fract_y
_atom_site_fract_z
_atom_site_B_iso_or_equiv
_atom_site_occupancy
V1 V5+ 4 e 0.1487 0.1086 0. . 1.
O1 O2- 4 e 0.146 0.4713 0. . 1.
O2 O2- 4 e 0.1809 0.0026 0.5 . 1.
O3 O2- 2 a 0. 0.9969 0. . 1.
loop_
_atom_site_aniso_label
_atom_site_aniso_type_symbol
_atom_site_aniso_B_11
_atom_site_aniso_B_22
_atom_site_aniso_B_33
_atom_site_aniso_B_12
_atom_site_aniso_B_13
_atom_site_aniso_B_23
V1 V5+ 0.4 0.7 0.4 0. 0. 0.
O1 O2- 1.2 1.3 1.4 0. 0. 0.
O2 O2- 0.5 1. 0.5 0. 0. 0.
O3 O2- 0.6 1.2 0.9 0. 0. 0.
#End of TTdata_15798-ICSD