
#(C) 2022 by FIZ Karlsruhe - Leibniz Institute for Information Infrastructure.  All rights reserved.
data_36976-ICSD
_database_code_ICSD 36976
_audit_creation_date 2022-02-01
_chemical_name_common 'Manganese diniobate'
_chemical_formula_structural 'Mn Nb2 O6'
_chemical_formula_sum 'Mn1 Nb2 O6'
_exptl_crystal_density_diffrn 5.29
_citation_title

;
The effect of hydrogen induced point defects on lithiation kinetics in
manganese niobate anode
;
loop_
_citation_id
_citation_journal_full
_citation_year
_citation_journal_volume
_citation_page_first
_citation_page_last
_citation_journal_id_ASTM
primary 'Journal of Alloys and Compounds' 2021 877 '' '' JALCEU
loop_
_citation_author_citation_id
_citation_author_name
primary 'Wang, Ting'
primary 'Zhu, Tianyi'
primary 'Wu, Jiqi'
primary 'Huang, Zhixiong'
primary 'Chen, Qing'
primary 'Hu, Wanjuan'
primary 'Huang, Yuna'
primary 'Shi, Shaojun'
primary 'Yin, Wenyu'
_cell_length_a 14.3753
_cell_length_b 5.7635
_cell_length_c 5.1039
_cell_angle_alpha 90.
_cell_angle_beta 90.
_cell_angle_gamma 90.
_cell_volume 422.87
_cell_formula_units_Z 4
_space_group_name_H-M_alt 'P b c n'
_space_group_IT_number 60
loop_
_space_group_symop_id
_space_group_symop_operation_xyz
1 'x, -y, z+1/2'
2 '-x+1/2, y+1/2, z'
3 'x+1/2, y+1/2, -z+1/2'
4 '-x, -y, -z'
5 '-x, y, -z+1/2'
6 'x+1/2, -y+1/2, -z'
7 '-x+1/2, -y+1/2, z+1/2'
8 'x, y, z'
loop_
_atom_type_symbol
_atom_type_oxidation_number
Mn2+ 2
Nb4+ 4.898
O2- -2
loop_
_atom_site_label
_atom_site_type_symbol
_atom_site_symmetry_multiplicity
_atom_site_Wyckoff_symbol
_atom_site_fract_x
_atom_site_fract_y
_atom_site_fract_z
_atom_site_B_iso_or_equiv
_atom_site_occupancy
Mn1 Mn2+ 4 c 0. 0.3283 0.25 . 1.
Nb1 Nb4+ 8 d 0.33658 0.32343 0.22924 . 0.9924
O1 O2- 8 d 0.06146 0.1485 0.11263 . 1.
O2 O2- 8 d 0.42297 0.09494 0.12064 . 1.
O3 O2- 8 d 0.24098 0.08993 0.48551 . 0.9241
#End of TTdata_36976-ICSD