
#(C) 2022 by FIZ Karlsruhe - Leibniz Institute for Information Infrastructure.  All rights reserved.
data_25750-ICSD
_database_code_ICSD 25750
_audit_creation_date 1986-09-25
_audit_update_record 2006-04-01
_chemical_name_common 'Niobium oxide - N'
_chemical_formula_structural 'Nb2 O5'
_chemical_formula_sum 'Nb2 O5'
_exptl_crystal_density_diffrn 4.31
_citation_title

;
The crystal structure of N - Nb2 O5, prepared in the presence of small amounts
of Li F
;
loop_
_citation_id
_citation_journal_full
_citation_year
_citation_journal_volume
_citation_page_first
_citation_page_last
_citation_journal_id_ASTM
primary 'Zeitschrift fuer Anorganische und Allgemeine Chemie (1950) (DE)' 1967
351 106 112 ZAACAB
loop_
_citation_author_citation_id
_citation_author_name
primary 'Andersson, S.'
_cell_length_a 28.51
_cell_length_b 3.83
_cell_length_c 17.48
_cell_angle_alpha 90.
_cell_angle_beta 120.8
_cell_angle_gamma 90.
_cell_volume 1639.5
_cell_formula_units_Z 16
_space_group_name_H-M_alt 'C 1 2/m 1'
_space_group_IT_number 12
loop_
_space_group_symop_id
_space_group_symop_operation_xyz
1 '-x, y, -z'
2 '-x, -y, -z'
3 'x, -y, z'
4 'x, y, z'
5 '-x+1/2, y+1/2, -z'
6 '-x+1/2, -y+1/2, -z'
7 'x+1/2, -y+1/2, z'
8 'x+1/2, y+1/2, z'
loop_
_atom_type_symbol
_atom_type_oxidation_number
Nb5+ 5
O2- -2
loop_
_atom_site_label
_atom_site_type_symbol
_atom_site_symmetry_multiplicity
_atom_site_Wyckoff_symbol
_atom_site_fract_x
_atom_site_fract_y
_atom_site_fract_z
_atom_site_B_iso_or_equiv
_atom_site_occupancy
Nb1 Nb5+ 4 i 0.5615 0. 0.099 0.4 1.
Nb2 Nb5+ 4 i 0.1577 0. 0.0995 0.55 1.
Nb3 Nb5+ 4 i 0.2903 0. 0.0958 0.14 1.
Nb4 Nb5+ 4 i 0.4265 0. 0.0968 0. 1.
Nb5 Nb5+ 4 i 0.5194 0. 0.3716 0.46 1.
Nb6 Nb5+ 4 i 0.3447 0. 0.6306 0.12 1.
Nb7 Nb5+ 4 i 0.2511 0. 0.3653 0.21 1.
Nb8 Nb5+ 4 i 0.3885 0. 0.367 0.31 1.
O1 O2- 4 i 0.07 0. 0.085 . 1.
O2 O2- 4 i 0.629 0. 0.075 . 1.
O3 O2- 4 i 0.773 0. 0.055 . 1.
O4 O2- 4 i 0.909 0. 0.05 . 1.
O5 O2- 4 i 0.021 0. 0.353 . 1.
O6 O2- 4 i 0.175 0. 0.366 . 1.
O7 O2- 4 i 0.266 0. 0.639 . 1.
O8 O2- 4 i 0.124 0. 0.638 . 1.
O9 O2- 4 i 0.216 0. 0.085 . 1.
O10 O2- 4 i 0.348 0. 0.069 . 1.
O11 O2- 4 i 0.48 0. 0.053 . 1.
O12 O2- 4 i 0.603 0. 0.223 . 1.
O13 O2- 4 i 0.199 0. 0.221 . 1.
O14 O2- 4 i 0.335 0. 0.221 . 1.
O15 O2- 4 i 0.484 0. 0.229 . 1.
O16 O2- 4 i 0.585 0. 0.352 . 1.
O17 O2- 4 i 0.3 0. 0.336 . 1.
O18 O2- 4 i 0.46 0. 0.379 . 1.
O19 O2- 4 i 0.436 0. 0.508 . 1.
O20 O2- 4 i 0.29 0. 0.503 . 1.
#End of TTdata_25750-ICSD