
#(C) 2022 by FIZ Karlsruhe - Leibniz Institute for Information Infrastructure.  All rights reserved.
data_17027-ICSD
_database_code_ICSD 17027
_audit_creation_date 1986-09-25
_audit_update_record 2015-02-01
_chemical_name_common 'Niobium oxide - HT'
_chemical_formula_structural 'Nb2 O5'
_chemical_formula_sum 'Nb2 O5'
_chemical_name_structure_type Nb2O5(HT)
_exptl_crystal_density_diffrn 4.41
_citation_title 'Ueber die Kristallstruktur von M - Nb2 O5'
loop_
_citation_id
_citation_journal_full
_citation_year
_citation_journal_volume
_citation_page_first
_citation_page_last
_citation_journal_id_ASTM
primary 'Journal of Solid State Chemistry' 1970 1 419 424 JSSCBI
loop_
_citation_author_citation_id
_citation_author_name
primary 'Martin, W.'
primary 'Andersson, S.'
primary 'Gruehn, R.'
_cell_length_a 20.44
_cell_length_b 20.44
_cell_length_c 3.832
_cell_angle_alpha 90.
_cell_angle_beta 90.
_cell_angle_gamma 90.
_cell_volume 1600.99
_cell_formula_units_Z 16
_space_group_name_H-M_alt 'I 4/m m m'
_space_group_IT_number 139
loop_
_space_group_symop_id
_space_group_symop_operation_xyz
1 'y, x, -z'
2 '-y, -x, -z'
3 '-y, x, -z'
4 'y, -x, -z'
5 '-x, y, -z'
6 'x, -y, -z'
7 'x, y, -z'
8 '-x, -y, -z'
9 '-y, -x, z'
10 'y, x, z'
11 'y, -x, z'
12 '-y, x, z'
13 'x, -y, z'
14 '-x, y, z'
15 '-x, -y, z'
16 'x, y, z'
17 'y+1/2, x+1/2, -z+1/2'
18 '-y+1/2, -x+1/2, -z+1/2'
19 '-y+1/2, x+1/2, -z+1/2'
20 'y+1/2, -x+1/2, -z+1/2'
21 '-x+1/2, y+1/2, -z+1/2'
22 'x+1/2, -y+1/2, -z+1/2'
23 'x+1/2, y+1/2, -z+1/2'
24 '-x+1/2, -y+1/2, -z+1/2'
25 '-y+1/2, -x+1/2, z+1/2'
26 'y+1/2, x+1/2, z+1/2'
27 'y+1/2, -x+1/2, z+1/2'
28 '-y+1/2, x+1/2, z+1/2'
29 'x+1/2, -y+1/2, z+1/2'
30 '-x+1/2, y+1/2, z+1/2'
31 '-x+1/2, -y+1/2, z+1/2'
32 'x+1/2, y+1/2, z+1/2'
loop_
_atom_type_symbol
_atom_type_oxidation_number
Nb5+ 5
O2- -2
loop_
_atom_site_label
_atom_site_type_symbol
_atom_site_symmetry_multiplicity
_atom_site_Wyckoff_symbol
_atom_site_fract_x
_atom_site_fract_y
_atom_site_fract_z
_atom_site_B_iso_or_equiv
_atom_site_occupancy
Nb1 Nb5+ 8 i 0.1294 0. 0. . 1.
Nb2 Nb5+ 8 i 0.4047 0. 0. . 1.
Nb3 Nb5+ 16 l 0.1344 0.2738 0. . 1.
O1 O2- 8 j 0.3479 0.5 0. . 1.
O2 O2- 8 j 0.0731 0.5 0. . 1.
O3 O2- 16 l 0.2095 0.3402 0. . 1.
O4 O2- 8 h 0.0678 0.0678 0. . 1.
O5 O2- 8 h 0.2116 0.2116 0. . 1.
O6 O2- 16 l 0.0727 0.2095 0. . 1.
O7 O2- 16 l 0.063 0.3555 0. . 1.
#End of TTdata_17027-ICSD