
#(C) 2022 by FIZ Karlsruhe - Leibniz Institute for Information Infrastructure.  All rights reserved.
data_121758-ICSD
_database_code_ICSD 121758
_audit_creation_date 2021-08-01
_chemical_name_common 'Manganese oxide (0.54/1.49)'
_chemical_formula_structural 'Mn0.537 O1.493'
_chemical_formula_sum 'Mn0.537 O1.493'
_chemical_name_mineral Birnessite
_exptl_crystal_density_diffrn 3.4
_diffrn_ambient_temperature 300.
_diffrn_ambient_pressure 100000.
_citation_title

;
Effects of pH and Ca exchange on the structure and redox state of synthetic
Na-birnessite
;
loop_
_citation_id
_citation_journal_full
_citation_year
_citation_journal_volume
_citation_page_first
_citation_page_last
_citation_journal_id_ASTM
primary 'American Mineralogist' 2021 106 15 27 AMMIAY
loop_
_citation_author_citation_id
_citation_author_name
primary 'Elmi, Chiara'
primary 'Post, Jeffrey E.'
primary 'Heaney, Peter J.'
primary 'Ilton, Eugene S.'
_cell_length_a 2.8592
_cell_length_b 2.8592
_cell_length_c 7.368
_cell_angle_alpha 90.
_cell_angle_beta 90.
_cell_angle_gamma 120.
_cell_volume 52.16
_cell_formula_units_Z 2
_space_group_name_H-M_alt 'P -3'
_space_group_IT_number 147
loop_
_space_group_symop_id
_space_group_symop_operation_xyz
1 'x-y, x, -z'
2 'y, -x+y, -z'
3 '-x, -y, -z'
4 '-x+y, -x, z'
5 '-y, x-y, z'
6 'x, y, z'
loop_
_atom_type_symbol
_atom_type_oxidation_number
Mn5+ 5.56
O2- -2
Mn5+ 5.56
loop_
_atom_site_label
_atom_site_type_symbol
_atom_site_symmetry_multiplicity
_atom_site_Wyckoff_symbol
_atom_site_fract_x
_atom_site_fract_y
_atom_site_fract_z
_atom_site_U_iso_or_equiv
_atom_site_occupancy
Mn1 Mn5+ 1 a 0. 0. 0. 0.003 0.88
O1 O2- 2 d 0.33333 0.66667 0.1359 0.015 1.
O2 O2- 2 d 0.33333 0.66667 0.547 0.04 0.49
Mn2 Mn5+ 2 c 0. 0. 0.2955 0.015 0.096
#End of TTdata_121758-ICSD