
#(C) 2022 by FIZ Karlsruhe - Leibniz Institute for Information Infrastructure.  All rights reserved.
data_248707-ICSD
_database_code_ICSD 248707
_audit_creation_date 2015-02-01
_chemical_name_common 'Nonaniobium vanadium pentacosaoxide'
_chemical_formula_structural 'Nb9 V O25'
_chemical_formula_sum 'Nb9 O25 V1'
_chemical_name_structure_type Nb9PO25
_exptl_crystal_density_diffrn 4.47
_diffrn_ambient_temperature 298.
_citation_title beta-Nb9VO25
loop_
_citation_id
_citation_journal_full
_citation_year
_citation_journal_volume
_citation_page_first
_citation_page_last
_citation_journal_id_ASTM
primary 'Acta Crystallographica, Section E: Structure Reports Online' 2014 70
i20 i20 ACSEBH
loop_
_citation_author_citation_id
_citation_author_name
primary 'Nasri, Rawia'
primary 'Cherif, Saida Fatma'
primary 'Zid, Mohamed Faouzi'
primary 'Driss, Ahmed'
_cell_length_a 15.7726
_cell_length_b 15.7726
_cell_length_c 3.8399
_cell_angle_alpha 90.
_cell_angle_beta 90.
_cell_angle_gamma 90.
_cell_volume 955.27
_cell_formula_units_Z 2
_space_group_name_H-M_alt 'I 4/m'
_space_group_IT_number 87
loop_
_space_group_symop_id
_space_group_symop_operation_xyz
1 '-y, x, -z'
2 'y, -x, -z'
3 'x, y, -z'
4 '-x, -y, -z'
5 'y, -x, z'
6 '-y, x, z'
7 '-x, -y, z'
8 'x, y, z'
9 '-y+1/2, x+1/2, -z+1/2'
10 'y+1/2, -x+1/2, -z+1/2'
11 'x+1/2, y+1/2, -z+1/2'
12 '-x+1/2, -y+1/2, -z+1/2'
13 'y+1/2, -x+1/2, z+1/2'
14 '-y+1/2, x+1/2, z+1/2'
15 '-x+1/2, -y+1/2, z+1/2'
16 'x+1/2, y+1/2, z+1/2'
loop_
_atom_type_symbol
_atom_type_oxidation_number
Nb5+ 5
V5+ 5
O2- -2
loop_
_atom_site_label
_atom_site_type_symbol
_atom_site_symmetry_multiplicity
_atom_site_Wyckoff_symbol
_atom_site_fract_x
_atom_site_fract_y
_atom_site_fract_z
_atom_site_U_iso_or_equiv
_atom_site_occupancy
Nb1 Nb5+ 2 a 0. 0. 0. 0.0195 1.
Nb2 Nb5+ 8 h 0.21851 0.10593 0. 0.0058 1.
Nb3 Nb5+ 8 h 0.11699 0.32601 0. 0.0057 1.
V1 V5+ 4 d 0. 0.5 0.25 0.0071 0.5
O1 O2- 8 h 0.1162 0.0515 0. 0.012 1.
O2 O2- 8 h 0.1767 0.2169 0. 0.013 1.
O3 O2- 8 h 0.2479 0.3891 0. 0.0084 1.
O4 O2- 8 h 0.0125 0.2815 0. 0.0106 1.
O5 O2- 8 h 0.3518 0.1572 0. 0.01 1.
O6 O2- 2 b 0. 0. 0.5 0.02 1.
O7 O2- 8 h 0.0749 0.4473 0. 0.0069 1.
loop_
_atom_site_aniso_label
_atom_site_aniso_type_symbol
_atom_site_aniso_U_11
_atom_site_aniso_U_22
_atom_site_aniso_U_33
_atom_site_aniso_U_12
_atom_site_aniso_U_13
_atom_site_aniso_U_23
Nb1 Nb5+ 0.0071 0.0071 0.044 0. 0. 0.
Nb2 Nb5+ 0.0044 0.0083 0.0048 -0.0002 0. 0.
Nb3 Nb5+ 0.0058 0.0068 0.0045 0.0015 0. 0.
V1 V5+ 0.0072 0.0072 0.007 0. 0. 0.
O1 O2- 0.01 0.012 0.012 0.003 0. 0.
O2 O2- 0.018 0.01 0.012 -0.002 0. 0.
O3 O2- 0.003 0.011 0.012 -0.003 0. 0.
O4 O2- 0.009 0.007 0.015 -0.004 0. 0.
O5 O2- 0.01 0.015 0.004 0.005 0. 0.
O6 O2- 0.023 0.023 0.016 0. 0. 0.
O7 O2- 0.008 0.007 0.006 0. 0. 0.
#End of TTdata_248707-ICSD