
#(C) 2022 by FIZ Karlsruhe - Leibniz Institute for Information Infrastructure.  All rights reserved.
data_602360-ICSD
_database_code_ICSD 602360
_audit_creation_date 2011-02-01
_audit_update_record 2019-02-01
_chemical_name_common 'Vanadium dioxide'
_chemical_formula_structural 'V O2'
_chemical_formula_sum 'O2 V1'
_chemical_name_structure_type MoO2#VO2
_exptl_crystal_density_diffrn 4.66
_diffrn_ambient_temperature 294.
_citation_title

;
The thermochromic vanadium dioxide. I. Role of stresses and substitution on
switching properties
;
_publ_section_comment 'Cell and Type only determined'
loop_
_citation_id
_citation_journal_full
_citation_year
_citation_journal_volume
_citation_page_first
_citation_page_last
_citation_journal_id_ASTM
primary 'Journal of Solid State Chemistry' 1993 103 81 94 JSSCBI
loop_
_citation_author_citation_id
_citation_author_name
primary 'Rakotoniaina, J.C.'
primary 'Mokrani-Tamellin, R.'
primary 'Gavarri, J.R.'
primary 'Vacquier, G.'
primary 'Casalot, A.'
primary 'Calvarin, G.'
_cell_length_a 5.3591
_cell_length_b 4.525
_cell_length_c 5.386
_cell_angle_alpha 90.
_cell_angle_beta 115.232
_cell_angle_gamma 90.
_cell_volume 118.15
_cell_formula_units_Z 4
_space_group_name_H-M_alt 'P 1 21/c 1'
_space_group_IT_number 14
loop_
_space_group_symop_id
_space_group_symop_operation_xyz
1 'x, -y+1/2, z+1/2'
2 '-x, -y, -z'
3 '-x, y+1/2, -z+1/2'
4 'x, y, z'
loop_
_atom_type_symbol
_atom_type_oxidation_number
V4+ 4
O2- -2
loop_
_atom_site_label
_atom_site_type_symbol
_atom_site_symmetry_multiplicity
_atom_site_Wyckoff_symbol
_atom_site_fract_x
_atom_site_fract_y
_atom_site_fract_z
_atom_site_B_iso_or_equiv
_atom_site_occupancy
V1 V4+ 4 e 0.261 0.021 0.287 . 1.
O1 O2- 4 e 0.606 0.212 0.397 . 1.
O2 O2- 4 e 0.099 0.297 0.398 . 1.
#End of TTdata_602360-ICSD