
#(C) 2022 by FIZ Karlsruhe - Leibniz Institute for Information Infrastructure.  All rights reserved.
data_759771-ICSD
_database_code_ICSD 759771
_audit_creation_date 2020-02-01
_chemical_name_common 'Manganese(IV) dioxide'
_chemical_formula_structural 'Mn O2'
_chemical_formula_sum 'Mn1 O2'
_chemical_name_structure_type CaCl2
_chemical_name_mineral Pyrolusite
_exptl_crystal_density_diffrn 5.31
_diffrn_ambient_temperature 293.
_diffrn_ambient_pressure 8400000.
_citation_title

;
Low-pressure ferroelastic phase transition in rutile-type AX$_2$ minerals:
cassiterite (SnO$_2$), pyrolusite (MnO$_2$) and sellaite (MgF$_2$)
;
loop_
_citation_id
_citation_journal_full
_citation_year
_citation_journal_volume
_citation_page_first
_citation_page_last
_citation_journal_id_ASTM
primary 'Physics and Chemistry of Minerals' 2019 46 987 1002 PCMIDU
loop_
_citation_author_citation_id
_citation_author_name
primary 'Curetti, Nadia'
primary 'Merli, Marcello'
primary 'Capella, Silvana'
primary 'Benna, Piera'
primary 'Pavese, Alessandro'
_cell_length_a 4.3047
_cell_length_b 4.41
_cell_length_c 2.862
_cell_angle_alpha 90.
_cell_angle_beta 90.
_cell_angle_gamma 90.
_cell_volume 54.33
_cell_formula_units_Z 2
_space_group_name_H-M_alt 'P n n m'
_space_group_IT_number 58
loop_
_space_group_symop_id
_space_group_symop_operation_xyz
1 'x+1/2, -y+1/2, z+1/2'
2 '-x+1/2, y+1/2, z+1/2'
3 'x, y, -z'
4 '-x, -y, -z'
5 '-x+1/2, y+1/2, -z+1/2'
6 'x+1/2, -y+1/2, -z+1/2'
7 '-x, -y, z'
8 'x, y, z'
loop_
_atom_type_symbol
_atom_type_oxidation_number
Mn4+ 4
O2- -2
loop_
_atom_site_label
_atom_site_type_symbol
_atom_site_symmetry_multiplicity
_atom_site_Wyckoff_symbol
_atom_site_fract_x
_atom_site_fract_y
_atom_site_fract_z
_atom_site_U_iso_or_equiv
_atom_site_occupancy
Mn1 Mn4+ 2 a 0. 0. 0. 0.047 1.
O1 O2- 4 g 0.277 0.347 0. 0.019 1.
loop_
_atom_site_aniso_label
_atom_site_aniso_type_symbol
_atom_site_aniso_U_11
_atom_site_aniso_U_22
_atom_site_aniso_U_33
_atom_site_aniso_U_12
_atom_site_aniso_U_13
_atom_site_aniso_U_23
Mn1 Mn4+ 0.11 0.024 0.0068 0.017 0. 0.
#End of TTdata_759771-ICSD