
#(C) 2022 by FIZ Karlsruhe - Leibniz Institute for Information Infrastructure.  All rights reserved.
data_16956-ICSD
_database_code_ICSD 16956
_audit_creation_date 1986-09-25
_chemical_name_common 'Manganese oxide (5/8)'
_chemical_formula_structural 'Mn5 O8'
_chemical_formula_sum 'Mn5 O8'
_chemical_name_structure_type Cd2Mn3O8
_exptl_crystal_density_diffrn 4.93
_citation_title 'Die Kristallstrukturen von Mn5 O8 und Cd2 Mn3 O8'
loop_
_citation_id
_citation_journal_full
_citation_year
_citation_journal_volume
_citation_page_first
_citation_page_last
_citation_journal_id_ASTM
primary 'Helvetica Chimica Acta' 1967 50 2023 2034 HCACAV
loop_
_citation_author_citation_id
_citation_author_name
primary 'Oswald, H.R.'
primary 'Wampetich, M.J.'
_cell_length_a 10.347
_cell_length_b 5.724
_cell_length_c 4.852
_cell_angle_alpha 90.
_cell_angle_beta 109.41
_cell_angle_gamma 90.
_cell_volume 271.03
_cell_formula_units_Z 2
_space_group_name_H-M_alt 'C 1 2/m 1'
_space_group_IT_number 12
loop_
_space_group_symop_id
_space_group_symop_operation_xyz
1 '-x, y, -z'
2 '-x, -y, -z'
3 'x, -y, z'
4 'x, y, z'
5 '-x+1/2, y+1/2, -z'
6 '-x+1/2, -y+1/2, -z'
7 'x+1/2, -y+1/2, z'
8 'x+1/2, y+1/2, z'
loop_
_atom_type_symbol
_atom_type_oxidation_number
Mn4+ 4
Mn2+ 2
O2- -2
loop_
_atom_site_label
_atom_site_type_symbol
_atom_site_symmetry_multiplicity
_atom_site_Wyckoff_symbol
_atom_site_fract_x
_atom_site_fract_y
_atom_site_fract_z
_atom_site_B_iso_or_equiv
_atom_site_occupancy
Mn1 Mn4+ 2 a 0. 0. 0. 1.1 1.
Mn2 Mn4+ 4 h 0. 0.262 0.5 1.1 1.
Mn3 Mn2+ 4 i 0.73 0. 0.162 1.2 1.
O1 O2- 8 j 0.402 0.266 0.106 1.4 1.
O2 O2- 4 i 0.093 0. 0.405 1.4 1.
O3 O2- 4 i 0.389 0. 0.575 1.4 1.
#End of TTdata_16956-ICSD