
#(C) 2022 by FIZ Karlsruhe - Leibniz Institute for Information Infrastructure.  All rights reserved.
data_647628-ICSD
_database_code_ICSD 647628
_audit_creation_date 2013-08-01
_audit_update_record 2019-08-01
_chemical_name_common 'Vanadium oxide (3/5)'
_chemical_formula_structural 'V3 O5'
_chemical_formula_sum 'O5 V3'
_chemical_name_structure_type V3O5
_exptl_crystal_density_diffrn 4.72
_citation_title

;
X-ray bond-type diffractometer investigations on V3O5 in the temperature
interval 298 to 480 K including the phase transition temperature Tt = 428 K
;
_publ_section_comment 'Cell and Type only determined'
loop_
_citation_id
_citation_journal_full
_citation_year
_citation_journal_volume
_citation_page_first
_citation_page_last
_citation_journal_id_ASTM
primary 'Physica Status Solidi A: Applied Research' 1985 87 135 140 PSSABA
loop_
_citation_author_citation_id
_citation_author_name
primary 'AAsbrink, S.'
primary 'Wolcyrz, M.'
primary 'Hong, S.-H.'
_cell_length_a 9.8575
_cell_length_b 5.0405
_cell_length_c 6.988
_cell_angle_alpha 90.
_cell_angle_beta 109.48
_cell_angle_gamma 90.
_cell_volume 327.34
_cell_formula_units_Z 4
_space_group_name_H-M_alt 'P 1 2/c 1'
_space_group_IT_number 13
loop_
_space_group_symop_id
_space_group_symop_operation_xyz
1 'x, -y, z+1/2'
2 '-x, -y, -z'
3 '-x, y, -z+1/2'
4 'x, y, z'
loop_
_atom_type_symbol
_atom_type_oxidation_number
V4+ 4
V3+ 3
O2- -2
loop_
_atom_site_label
_atom_site_type_symbol
_atom_site_symmetry_multiplicity
_atom_site_Wyckoff_symbol
_atom_site_fract_x
_atom_site_fract_y
_atom_site_fract_z
_atom_site_B_iso_or_equiv
_atom_site_occupancy
V1 V4+ 4 g 0.368 0.006 0.089 . 1.
V2 V3+ 4 g 0.129 0.497 0.409 . 1.
V3 V3+ 2 b 0.5 0.5 0. . 1.
V4 V3+ 2 a 0. 0. 0. . 1.
O1 O2- 4 g 0.2 0.147 0.038 . 1.
O2 O2- 4 g 0.313 0.34 0.474 . 1.
O3 O2- 4 g 0.582 0.152 0.639 . 1.
O4 O2- 4 g 0.079 0.659 0.137 . 1.
O5 O2- 2 f 0.5 0.297 0.25 . 1.
O6 O2- 2 e 0. 0.185 0.25 . 1.
#End of TTdata_647628-ICSD