
#(C) 2022 by FIZ Karlsruhe - Leibniz Institute for Information Infrastructure.  All rights reserved.
data_199-ICSD
_database_code_ICSD 199
_audit_creation_date 1980-01-01
_audit_update_record 2010-02-01
_chemical_name_common 'Vanadium(IV) oxide - HT'
_chemical_formula_structural 'V O2'
_chemical_formula_sum 'O2 V1'
_chemical_name_structure_type VO2(HT)
_exptl_crystal_density_diffrn 4.02
_citation_title 'Essai sur la structure de V O2 (B)'
loop_
_citation_id
_citation_journal_full
_citation_year
_citation_journal_volume
_citation_page_first
_citation_page_last
_citation_journal_id_ASTM
primary 'Journal of Solid State Chemistry' 1976 17 431 438 JSSCBI
loop_
_citation_author_citation_id
_citation_author_name
primary 'Theobald, F.R.'
primary 'Cabala, R.'
primary 'Bernard, J.'
_cell_length_a 12.03
_cell_length_b 3.693
_cell_length_c 6.42
_cell_angle_alpha 90.
_cell_angle_beta 106.1
_cell_angle_gamma 90.
_cell_volume 274.03
_cell_formula_units_Z 8
_space_group_name_H-M_alt 'C 1 2/m 1'
_space_group_IT_number 12
loop_
_space_group_symop_id
_space_group_symop_operation_xyz
1 '-x, y, -z'
2 '-x, -y, -z'
3 'x, -y, z'
4 'x, y, z'
5 '-x+1/2, y+1/2, -z'
6 '-x+1/2, -y+1/2, -z'
7 'x+1/2, -y+1/2, z'
8 'x+1/2, y+1/2, z'
loop_
_atom_type_symbol
_atom_type_oxidation_number
V4+ 4
O2- -2
loop_
_atom_site_label
_atom_site_type_symbol
_atom_site_symmetry_multiplicity
_atom_site_Wyckoff_symbol
_atom_site_fract_x
_atom_site_fract_y
_atom_site_fract_z
_atom_site_B_iso_or_equiv
_atom_site_occupancy
V1 V4+ 4 i 0.195 0. 0.275 . 1.
V2 V4+ 4 i 0.098 0. 0.7 . 1.
O1 O2- 4 i 0.137 0. 0.009 . 1.
O2 O2- 4 i 0.262 0. 0.627 . 1.
O3 O2- 4 i 0.066 0. 0.405 . 1.
O4 O2- 4 i 0.358 0. 0.271 . 1.
#End of TTdata_199-ICSD