
#(C) 2022 by FIZ Karlsruhe - Leibniz Institute for Information Infrastructure.  All rights reserved.
data_60821-ICSD
_database_code_ICSD 60821
_audit_creation_date 1988-02-22
_audit_update_record 2005-10-01
_chemical_name_common 'Dimanganese(VII) oxide'
_chemical_formula_structural 'Mn2 O7'
_chemical_formula_sum 'Mn2 O7'
_exptl_crystal_density_diffrn 2.79
_diffrn_ambient_temperature 243.
_citation_title 'Die Kristallstruktur von Mn2 O7'
loop_
_citation_id
_citation_journal_full
_citation_year
_citation_journal_volume
_citation_page_first
_citation_page_last
_citation_journal_id_ASTM
primary 'Angewandte Chemie' 1987 99 160 161 ANCEAD
loop_
_citation_author_citation_id
_citation_author_name
primary 'Simon, A.'
primary 'Dronskowski, R.'
primary 'Krebs, B.'
primary 'Hettich, B.'
_cell_length_a 6.7956
_cell_length_b 16.6868
_cell_length_c 9.4539
_cell_angle_alpha 90.
_cell_angle_beta 100.2
_cell_angle_gamma 90.
_cell_volume 1055.1
_cell_formula_units_Z 8
_space_group_name_H-M_alt 'P 1 21/c 1'
_space_group_IT_number 14
loop_
_space_group_symop_id
_space_group_symop_operation_xyz
1 'x, -y+1/2, z+1/2'
2 '-x, -y, -z'
3 '-x, y+1/2, -z+1/2'
4 'x, y, z'
loop_
_atom_type_symbol
_atom_type_oxidation_number
Mn7+ 7
O2- -2
loop_
_atom_site_label
_atom_site_type_symbol
_atom_site_symmetry_multiplicity
_atom_site_Wyckoff_symbol
_atom_site_fract_x
_atom_site_fract_y
_atom_site_fract_z
_atom_site_B_iso_or_equiv
_atom_site_occupancy
Mn1 Mn7+ 4 e 0.14385 0.25328 0.45236 . 1.
Mn2 Mn7+ 4 e 0.57795 0.24773 0.11091 . 1.
Mn3 Mn7+ 4 e 0.28776 0.00201 0.17239 . 1.
Mn4 Mn7+ 4 e 0.27816 0.50137 0.16971 . 1.
O1 O2- 4 e 0.3611 0.2994 0.0296 . 1.
O2 O2- 4 e 0.0736 0.1934 0.0741 . 1.
O3 O2- 4 e 0.0212 0.6897 0.1088 . 1.
O4 O2- 4 e 0.1979 0.3086 0.3274 . 1.
O5 O2- 4 e 0.6414 0.3112 0.4956 . 1.
O6 O2- 4 e 0.7471 0.3112 0.1619 . 1.
O7 O2- 4 e 0.5254 0.1985 0.2429 . 1.
O8 O2- 4 e 0.4953 0.4495 0.2481 . 1.
O9 O2- 4 e 0.3392 0.0523 0.0412 . 1.
O10 O2- 4 e 0.1195 0.5614 0.6194 . 1.
O11 O2- 4 e 0.2254 0.0599 0.2898 . 1.
O12 O2- 4 e 0.208 0.5549 0.2902 . 1.
O13 O2- 4 e 0.1147 0.4375 0.1095 . 1.
O14 O2- 4 e 0.3324 0.5557 0.0443 . 1.
loop_
_atom_site_aniso_label
_atom_site_aniso_type_symbol
_atom_site_aniso_U_11
_atom_site_aniso_U_22
_atom_site_aniso_U_33
_atom_site_aniso_U_12
_atom_site_aniso_U_13
_atom_site_aniso_U_23
Mn1 Mn7+ 0.0241 0.0299 0.0233 -0.0007 0.0013 0.0008
Mn2 Mn7+ 0.024 0.03 0.0235 -0.0007 0.0024 0.0014
Mn3 Mn7+ 0.0237 0.0294 0.024 -0.0007 0.0026 0.0004
Mn4 Mn7+ 0.0246 0.0298 0.0222 -0.0009 0.0013 -0.0011
O1 O2- 0.0224 0.0316 0.0311 -0.002 0.0017 0.0007
O2 O2- 0.0339 0.0469 0.0336 0.0083 0.0065 -0.0064
O3 O2- 0.0298 0.0405 0.0494 0.0023 -0.0077 0.0065
O4 O2- 0.043 0.0472 0.0328 -0.0133 0.0067 0.0008
O5 O2- 0.0353 0.0467 0.0329 -0.0065 0.008 0.0098
O6 O2- 0.0282 0.0414 0.0487 -0.0025 -0.0029 -0.0041
O7 O2- 0.0423 0.0473 0.0297 0.0072 0.0095 0.001
O8 O2- 0.0278 0.0286 0.031 -0.001 0.0007 -0.0012
O9 O2- 0.0448 0.0426 0.0312 0.0073 0.0076 0.0014
O10 O2- 0.0292 0.0427 0.0525 -0.0025 -0.0048 -0.0065
O11 O2- 0.0419 0.0493 0.031 -0.0082 0.0075 0.0098
O12 O2- 0.0377 0.0444 0.0325 0.0054 0.0059 -0.0091
O13 O2- 0.0331 0.0417 0.0436 0.0033 -0.0057 0.0051
O14 O2- 0.0493 0.0506 0.0326 -0.0119 0.0091 -0.0025
#End of TTdata_60821-ICSD