
#(C) 2022 by FIZ Karlsruhe - Leibniz Institute for Information Infrastructure.  All rights reserved.
data_155016-ICSD
_database_code_ICSD 155016
_audit_creation_date 2007-04-01
_chemical_name_common 'Niobium oxide (12/29) - LT'
_chemical_formula_structural 'Nb12 O29'
_chemical_formula_sum 'Nb12 O29'
_chemical_name_structure_type Ti2Nb10O29
_exptl_crystal_density_diffrn 4.58
_diffrn_ambient_temperature 30.
_citation_title 'Structure and electronic properties of monoclinic Nb12 O29'
loop_
_citation_id
_citation_journal_full
_citation_year
_citation_journal_volume
_citation_page_first
_citation_page_last
_citation_journal_id_ASTM
primary 'Journal of Physics F: Metal Physics' 2004 65 79 86 JPFMAT
loop_
_citation_author_citation_id
_citation_author_name
primary 'Waldron, J.E.L.'
primary 'Green, M.A.'
primary 'Neumann, D.A.'
_cell_length_a 20.723
_cell_length_b 3.831
_cell_length_c 15.695
_cell_angle_alpha 90.
_cell_angle_beta 113.103
_cell_angle_gamma 90.
_cell_volume 1146.09
_cell_formula_units_Z 2
_space_group_name_H-M_alt 'C 1 2/m 1'
_space_group_IT_number 12
loop_
_space_group_symop_id
_space_group_symop_operation_xyz
1 '-x, y, -z'
2 '-x, -y, -z'
3 'x, -y, z'
4 'x, y, z'
5 '-x+1/2, y+1/2, -z'
6 '-x+1/2, -y+1/2, -z'
7 'x+1/2, -y+1/2, z'
8 'x+1/2, y+1/2, z'
loop_
_atom_type_symbol
_atom_type_oxidation_number
Nb4+ 4.83
O2- -2
loop_
_atom_site_label
_atom_site_type_symbol
_atom_site_symmetry_multiplicity
_atom_site_Wyckoff_symbol
_atom_site_fract_x
_atom_site_fract_y
_atom_site_fract_z
_atom_site_U_iso_or_equiv
_atom_site_occupancy
Nb1 Nb4+ 4 i 0.064 0. 0.597 0.0128 1.
Nb2 Nb4+ 4 i 0.304 0. 0.4 0.0128 1.
Nb3 Nb4+ 4 i 0.116 0. 0.397 0.0128 1.
Nb4 Nb4+ 4 i 0.852 0. 0.124 0.0128 1.
Nb5 Nb4+ 4 i 0.2265 0. 0.129 0.0128 1.
Nb6 Nb4+ 4 i 0.043 0. 0.143 0.0128 1.
O1 O2- 2 a 0. 0. 0. 0.0046 1.
O2 O2- 4 i 0.165 0. 0.575 0.0046 1.
O3 O2- 4 i 0.371 0. 0.571 0.0046 1.
O4 O2- 4 i 0.426 0. 0.436 0.0046 1.
O5 O2- 4 i 0.219 0. 0.431 0.0046 1.
O6 O2- 4 i 0.027 0. 0.427 0.0046 1.
O7 O2- 4 i 0.101 0. 0.713 0.0046 1.
O8 O2- 4 i 0.269 0. 0.285 0.0046 1.
O9 O2- 4 i 0.075 0. 0.263 0.0046 1.
O10 O2- 4 i 0.052 0. 0.859 0.0046 1.
O11 O2- 4 i 0.758 0. 0.141 0.0046 1.
O12 O2- 4 i 0.54 0. 0.145 0.0046 1.
O13 O2- 4 i 0.336 0. 0.137 0.0046 1.
O14 O2- 4 i 0.134 0. 0.139 0.0046 1.
O15 O2- 4 i 0.191 0. 0.006 0.0046 1.
#End of TTdata_155016-ICSD