
#(C) 2022 by FIZ Karlsruhe - Leibniz Institute for Information Infrastructure.  All rights reserved.
data_2338-ICSD
_database_code_ICSD 2338
_audit_creation_date 1980-01-01
_audit_update_record 2012-08-01
_chemical_name_common 'Vanadium oxide (3/7)'
_chemical_formula_structural 'V3 O7'
_chemical_formula_sum 'O7 V3'
_exptl_crystal_density_diffrn 3.58
_citation_title 'The crystal structure of V3 O7'
loop_
_citation_id
_citation_journal_full
_citation_year
_citation_journal_volume
_citation_page_first
_citation_page_last
_citation_journal_id_ASTM
primary

;
Acta Crystallographica, Section B: Structural Crystallography and Crystal
Chemistry
; 1974 30 2644 2652 ACBCAR
loop_
_citation_author_citation_id
_citation_author_name
primary 'Waltersson, K.'
primary 'Forslund, B.'
primary 'Wilhelmi, K.A.'
primary 'Andersson, S.'
primary 'Galy, J.'
_cell_length_a 21.921
_cell_length_b 3.679
_cell_length_c 18.341
_cell_angle_alpha 90.
_cell_angle_beta 95.61
_cell_angle_gamma 90.
_cell_volume 1472.07
_cell_formula_units_Z 12
_space_group_name_H-M_alt 'C 1 2/c 1'
_space_group_IT_number 15
loop_
_space_group_symop_id
_space_group_symop_operation_xyz
1 'x, -y, z+1/2'
2 '-x, -y, -z'
3 '-x, y, -z+1/2'
4 'x, y, z'
5 'x+1/2, -y+1/2, z+1/2'
6 '-x+1/2, -y+1/2, -z'
7 '-x+1/2, y+1/2, -z+1/2'
8 'x+1/2, y+1/2, z'
loop_
_atom_type_symbol
_atom_type_oxidation_number
V0+ 0
O0+ 0
loop_
_atom_site_label
_atom_site_type_symbol
_atom_site_symmetry_multiplicity
_atom_site_Wyckoff_symbol
_atom_site_fract_x
_atom_site_fract_y
_atom_site_fract_z
_atom_site_B_iso_or_equiv
_atom_site_occupancy
V1 V0+ 4 e 0. 0.68913 0.25 . 1.
V2 V0+ 8 f 0.30451 0.17989 0.0586 . 1.
V3 V0+ 8 f 0.46946 0.25186 0.05534 . 1.
V4 V0+ 8 f 0.33711 0.25494 0.24533 . 1.
V5 V0+ 8 f 0.17161 0.25462 0.12622 . 1.
O1 O0+ 8 f 0.19225 0.2412 0.43942 . 1.
O2 O0+ 4 e 0. 0.2493 0.25 . 1.
O3 O0+ 8 f 0.02324 0.2498 0.47363 . 1.
O4 O0+ 8 f 0.17387 0.2544 0.2326 . 1.
O5 O0+ 8 f 0.31591 0.2537 0.34644 . 1.
O6 O0+ 8 f 0.29557 0.2527 0.16428 . 1.
O7 O0+ 8 f 0.50324 0.2484 0.14077 . 1.
O8 O0+ 8 f 0.10244 0.2564 0.09372 . 1.
O9 O0+ 8 f 0.41009 0.2509 0.23323 . 1.
O10 O0+ 8 f 0.39462 0.2443 0.06273 . 1.
O11 O0+ 8 f 0.21331 0.2478 0.04814 . 1.
loop_
_atom_site_aniso_label
_atom_site_aniso_type_symbol
_atom_site_aniso_beta_11
_atom_site_aniso_beta_22
_atom_site_aniso_beta_33
_atom_site_aniso_beta_12
_atom_site_aniso_beta_13
_atom_site_aniso_beta_23
V1 V0+ 0.00025 0.01735 0.00052 0. 0.00003 0.
V2 V0+ 0.00019 0.00376 0.00033 0.00003 0.00003 0.00003
V3 V0+ 0.00017 0.00547 0.00035 -0.00004 0.00008 -0.00003
V4 V0+ 0.00024 0.00548 0.00025 -0.00003 0.00004 -0.00002
V5 V0+ 0.00029 0.00625 0.0003 0.00003 0.0001 0.00004
O1 O0+ 0.00048 0.0047 0.00067 -0.00029 0.00004 0.00019
O2 O0+ 0.00074 0.0098 0.00067 0. 0.00006 0.
O3 O0+ 0.0004 0.0032 0.00072 -0.00023 0.00022 -0.00016
O4 O0+ 0.00082 0.0049 0.00037 0.00038 0.00015 0.00013
O5 O0+ 0.00055 0.0039 0.00048 0.00022 0.00024 0.0001
O6 O0+ 0.00047 0.0137 0.00044 0.00004 -0.00005 0.00051
O7 O0+ 0.00034 0.0153 0.00057 -0.00078 0.00003 -0.00005
O8 O0+ 0.00032 0.0264 0.00086 0.00015 0.00002 -0.00016
O9 O0+ 0.00026 0.0225 0.00093 -0.00003 0.00009 -0.00041
O10 O0+ 0.00019 0.0112 0.00102 -0.00007 0.00011 0.00022
O11 O0+ 0.00018 0.0128 0.00031 -0.00039 0.00004 0.00091
#End of TTdata_2338-ICSD