
#(C) 2022 by FIZ Karlsruhe - Leibniz Institute for Information Infrastructure.  All rights reserved.
data_24089-ICSD
_database_code_ICSD 24089
_audit_creation_date 1986-09-25
_audit_update_record 2013-02-01
_chemical_name_common 'Niobium oxide (12/29) - HT'
_chemical_formula_structural 'Nb12 O29'
_chemical_formula_sum 'Nb12 O29'
_chemical_name_structure_type Nb12O29(HT)
_exptl_crystal_density_diffrn 4.57
_citation_title 'The crystal structure of Nb12 O29 (orh)'
loop_
_citation_id
_citation_journal_full
_citation_year
_citation_journal_volume
_citation_page_first
_citation_page_last
_citation_journal_id_ASTM
primary 'Acta Chemica Scandinavica ' 1963 17 1391 1404 ACSAA4
loop_
_citation_author_citation_id
_citation_author_name
primary 'Norin, R.'
_cell_length_a 3.835
_cell_length_b 20.72
_cell_length_c 28.9
_cell_angle_alpha 90.
_cell_angle_beta 90.
_cell_angle_gamma 90.
_cell_volume 2296.43
_cell_formula_units_Z 4
_space_group_name_H-M_alt 'C m c m'
_space_group_IT_number 63
loop_
_space_group_symop_id
_space_group_symop_operation_xyz
1 '-x, y, -z+1/2'
2 '-x, -y, z+1/2'
3 '-x, y, z'
4 '-x, -y, -z'
5 'x, -y, z+1/2'
6 'x, y, -z+1/2'
7 'x, -y, -z'
8 'x, y, z'
9 '-x+1/2, y+1/2, -z+1/2'
10 '-x+1/2, -y+1/2, z+1/2'
11 '-x+1/2, y+1/2, z'
12 '-x+1/2, -y+1/2, -z'
13 'x+1/2, -y+1/2, z+1/2'
14 'x+1/2, y+1/2, -z+1/2'
15 'x+1/2, -y+1/2, -z'
16 'x+1/2, y+1/2, z'
loop_
_atom_type_symbol
_atom_type_oxidation_number
Nb4+ 4
Nb5+ 5
O2- -2
loop_
_atom_site_label
_atom_site_type_symbol
_atom_site_symmetry_multiplicity
_atom_site_Wyckoff_symbol
_atom_site_fract_x
_atom_site_fract_y
_atom_site_fract_z
_atom_site_B_iso_or_equiv
_atom_site_occupancy
Nb1 Nb4+ 8 f 0. 0.533 0.049 0.36 1.
Nb2 Nb5+ 8 f 0. 0.17 0.049 0.57 1.
Nb3 Nb5+ 8 f 0. 0.352 0.049 0. 1.
Nb4 Nb5+ 8 f 0. 0.534 0.184 0.52 1.
Nb5 Nb5+ 8 f 0. 0.169 0.185 0.62 1.
Nb6 Nb5+ 8 f 0. 0.352 0.187 0.16 1.
O1 O2- 4 c 0. 0.54 0.25 -1.8 1.
O2 O2- 4 c 0. 0.16 0.25 2.4 1.
O3 O2- 4 c 0. 0.35 0.25 1.3 1.
O4 O2- 8 f 0. 0.08 0.05 -2.3 1.
O5 O2- 8 f 0. 0.34 0.53 -0.2 1.
O6 O2- 8 f 0. 0.26 0.05 -2.1 1.
O7 O2- 8 f 0. 0.16 0.52 2.2 1.
O8 O2- 8 f 0. 0.45 0.05 -1.4 1.
O9 O2- 8 f 0. 0.54 0.12 0. 1.
O10 O2- 8 f 0. 0.16 0.11 0.4 1.
O11 O2- 8 f 0. 0.35 0.12 2.1 1.
O12 O2- 8 f 0. 0.05 0.18 -1.9 1.
O13 O2- 8 f 0. 0.64 0.19 -1.1 1.
O14 O2- 8 f 0. 0.26 0.18 -1.5 1.
O15 O2- 8 f 0. 0.15 0.69 -1. 1.
O16 O2- 8 f 0. 0.44 0.18 -1.2 1.
#End of TTdata_24089-ICSD