
#(C) 2022 by FIZ Karlsruhe - Leibniz Institute for Information Infrastructure.  All rights reserved.
data_40110-ICSD
_database_code_ICSD 40110
_audit_creation_date 1998-06-26
_audit_update_record 2016-02-01
_chemical_name_common 'Manganese oxide (3/4) - beta'
_chemical_formula_structural 'Mn3 O4'
_chemical_formula_sum 'Mn3 O4'
_chemical_name_structure_type CaMn2O4
_chemical_name_mineral Hausmannite
_exptl_crystal_density_diffrn 5.37
_citation_title 'Rietveld refinement of the high-pressure polymorph of Mn3 O4'
loop_
_citation_id
_citation_journal_full
_citation_year
_citation_journal_volume
_citation_page_first
_citation_page_last
_citation_journal_id_ASTM
primary 'American Mineralogist' 1990 75 1249 1252 AMMIAY
loop_
_citation_author_citation_id
_citation_author_name
primary 'Ross, C.R.'
primary 'Rubie, D.C.'
primary 'Paris, E.'
_cell_length_a 3.024
_cell_length_b 9.7996
_cell_length_c 9.5564
_cell_angle_alpha 90.
_cell_angle_beta 90.
_cell_angle_gamma 90.
_cell_volume 283.19
_cell_formula_units_Z 4
_space_group_name_H-M_alt 'P b c m'
_space_group_IT_number 57
loop_
_space_group_symop_id
_space_group_symop_operation_xyz
1 'x, -y+1/2, z+1/2'
2 '-x, y+1/2, z'
3 'x, y, -z+1/2'
4 '-x, -y, -z'
5 '-x, y+1/2, -z+1/2'
6 'x, -y+1/2, -z'
7 '-x, -y, z+1/2'
8 'x, y, z'
loop_
_atom_type_symbol
_atom_type_oxidation_number
Mn2+ 2
Mn3+ 3
O2- -2
loop_
_atom_site_label
_atom_site_type_symbol
_atom_site_symmetry_multiplicity
_atom_site_Wyckoff_symbol
_atom_site_fract_x
_atom_site_fract_y
_atom_site_fract_z
_atom_site_B_iso_or_equiv
_atom_site_occupancy
Mn1 Mn2+ 4 d 0.6845 0.1461 0.25 0.55 1.
Mn2 Mn3+ 8 e 0.2034 0.3853 0.0696 0.25 1.
O1 O2- 4 c 0.6204 0.25 0. 0.18 1.
O2 O2- 4 d 0.1899 0.3001 0.25 0.18 1.
O3 O2- 8 e 0.2044 0.0306 0.1112 0.18 1.
#End of TTdata_40110-ICSD