
#(C) 2022 by FIZ Karlsruhe - Leibniz Institute for Information Infrastructure.  All rights reserved.
data_112710-ICSD
_database_code_ICSD 112710
_audit_creation_date 2022-02-01
_chemical_name_common 'Manganese dioxide - beta'
_chemical_formula_structural 'Mn O2'
_chemical_formula_sum 'Mn1 O2'
_chemical_name_structure_type Rutile#TiO2
_chemical_name_mineral Pyrolusite
_exptl_crystal_density_diffrn 5.18
_diffrn_ambient_temperature 293.
_citation_title
'High-temperature ramsdellite-pyrolusite transformation kinetics'
loop_
_citation_id
_citation_journal_full
_citation_year
_citation_journal_volume
_citation_page_first
_citation_page_last
_citation_journal_id_ASTM
primary 'Physics and Chemistry of Minerals' 2021 48 '' '' PCMIDU
loop_
_citation_author_citation_id
_citation_author_name
primary 'Curetti, Nadia'
primary 'Bernasconi, Davide'
primary 'Benna, Piera'
primary 'Fiore, Gianluca'
primary 'Pavese, Alessandro'
_cell_length_a 4.403
_cell_length_b 4.403
_cell_length_c 2.8739
_cell_angle_alpha 90.
_cell_angle_beta 90.
_cell_angle_gamma 90.
_cell_volume 55.71
_cell_formula_units_Z 2
_space_group_name_H-M_alt 'P 42/m n m'
_space_group_IT_number 136
loop_
_space_group_symop_id
_space_group_symop_operation_xyz
1 '-y+1/2, x+1/2, -z+1/2'
2 'y+1/2, -x+1/2, -z+1/2'
3 'y, x, -z'
4 '-y, -x, -z'
5 'y+1/2, -x+1/2, z+1/2'
6 '-y+1/2, x+1/2, z+1/2'
7 '-y, -x, z'
8 'y, x, z'
9 'x+1/2, -y+1/2, -z+1/2'
10 '-x+1/2, y+1/2, -z+1/2'
11 'x, y, -z'
12 '-x, -y, -z'
13 '-x+1/2, y+1/2, z+1/2'
14 'x+1/2, -y+1/2, z+1/2'
15 '-x, -y, z'
16 'x, y, z'
loop_
_atom_type_symbol
_atom_type_oxidation_number
Mn4+ 4
O2- -2
loop_
_atom_site_label
_atom_site_type_symbol
_atom_site_symmetry_multiplicity
_atom_site_Wyckoff_symbol
_atom_site_fract_x
_atom_site_fract_y
_atom_site_fract_z
_atom_site_U_iso_or_equiv
_atom_site_occupancy
Mn1 Mn4+ 2 a 0. 0. 0. 0.00493 1.
O1 O2- 4 f 0.3052 0.3052 0. 0.0073 1.
loop_
_atom_site_aniso_label
_atom_site_aniso_type_symbol
_atom_site_aniso_U_11
_atom_site_aniso_U_22
_atom_site_aniso_U_33
_atom_site_aniso_U_12
_atom_site_aniso_U_13
_atom_site_aniso_U_23
Mn1 Mn4+ 0.0059 0.0059 0.003 -0.00002 0. 0.
O1 O2- 0.009 0.009 0.0039 -0.0028 0. 0.
#End of TTdata_112710-ICSD