
#(C) 2022 by FIZ Karlsruhe - Leibniz Institute for Information Infrastructure.  All rights reserved.
data_34991-ICSD
_database_code_ICSD 34991
_audit_creation_date 2022-02-01
_chemical_name_common 'Manganese dioxide'
_chemical_formula_structural 'Mn O2'
_chemical_formula_sum 'Mn1 O2'
_chemical_name_structure_type CaCl2
_exptl_crystal_density_diffrn 5.02
_citation_title

;
Structure determination and magnetic properties of the Mn-doped MAX phase
Cr$_2$GaC
;
loop_
_citation_id
_citation_journal_full
_citation_year
_citation_journal_volume
_citation_page_first
_citation_page_last
_citation_journal_id_ASTM
primary 'Materials Chemistry Frontiers' 2021 5 6082 6091 MCFAC5
loop_
_citation_author_citation_id
_citation_author_name
primary 'Siebert, Jan P.'
primary 'Mallett, Shayna'
primary 'Juelsholt, Mikkel'
primary 'Pazniak, Hanna'
primary 'Wiedwald, Ulf'
primary 'Page, Katharine'
primary 'Birkel, Christina S.'
_cell_length_a 4.434
_cell_length_b 4.455
_cell_length_c 2.913
_cell_angle_alpha 90.
_cell_angle_beta 90.
_cell_angle_gamma 90.
_cell_volume 57.54
_cell_formula_units_Z 2
_space_group_name_H-M_alt 'P n n m'
_space_group_IT_number 58
loop_
_space_group_symop_id
_space_group_symop_operation_xyz
1 'x+1/2, -y+1/2, z+1/2'
2 '-x+1/2, y+1/2, z+1/2'
3 'x, y, -z'
4 '-x, -y, -z'
5 '-x+1/2, y+1/2, -z+1/2'
6 'x+1/2, -y+1/2, -z+1/2'
7 '-x, -y, z'
8 'x, y, z'
loop_
_atom_type_symbol
_atom_type_oxidation_number
Mn0+ 0
O2- -2
loop_
_atom_site_label
_atom_site_type_symbol
_atom_site_symmetry_multiplicity
_atom_site_Wyckoff_symbol
_atom_site_fract_x
_atom_site_fract_y
_atom_site_fract_z
_atom_site_B_iso_or_equiv
_atom_site_occupancy
Mn1 Mn0+ 2 a 0. 0. 0. 0.739 1.
O1 O2- 4 g 0.4 0.4 0. 3. 1.
#End of TTdata_34991-ICSD