
#(C) 2022 by FIZ Karlsruhe - Leibniz Institute for Information Infrastructure.  All rights reserved.
data_16802-ICSD
_database_code_ICSD 16802
_audit_creation_date 1986-09-25
_audit_update_record 2006-04-01
_chemical_name_common 'Niobium oxide - zeta'
_chemical_formula_structural 'Nb2 O5'
_chemical_formula_sum 'Nb2 O5'
_chemical_name_structure_type Sb2O5
_exptl_crystal_density_diffrn 5.29
_citation_title 'Die Kristallstruktur von zeta-Nb2 O5'
loop_
_citation_id
_citation_journal_full
_citation_year
_citation_journal_volume
_citation_page_first
_citation_page_last
_citation_journal_id_ASTM
primary Naturwissenschaften 1964 51 633 634 NATWAY
loop_
_citation_author_citation_id
_citation_author_name
primary 'Laves, F.'
primary 'Petter, W.'
primary 'Wulf, H.'
_cell_length_a 12.73
_cell_length_b 4.88
_cell_length_c 5.56
_cell_angle_alpha 90.
_cell_angle_beta 105.05
_cell_angle_gamma 90.
_cell_volume 333.55
_cell_formula_units_Z 4
_space_group_name_H-M_alt 'C 1 2/c 1'
_space_group_IT_number 15
loop_
_space_group_symop_id
_space_group_symop_operation_xyz
1 'x, -y, z+1/2'
2 '-x, -y, -z'
3 '-x, y, -z+1/2'
4 'x, y, z'
5 'x+1/2, -y+1/2, z+1/2'
6 '-x+1/2, -y+1/2, -z'
7 '-x+1/2, y+1/2, -z+1/2'
8 'x+1/2, y+1/2, z'
loop_
_atom_type_symbol
_atom_type_oxidation_number
Nb5+ 5
O2- -2
loop_
_atom_site_label
_atom_site_type_symbol
_atom_site_symmetry_multiplicity
_atom_site_Wyckoff_symbol
_atom_site_fract_x
_atom_site_fract_y
_atom_site_fract_z
_atom_site_B_iso_or_equiv
_atom_site_occupancy
Nb1 Nb5+ 8 f 0.14 0.238 0.249 . 1.
O1 O2- 4 e 0. 0.099 0.25 . 1.
O2 O2- 8 f 0.389 0.054 0.031 . 1.
O3 O2- 8 f 0.295 0.426 0.375 . 1.
#End of TTdata_16802-ICSD