
#(C) 2022 by FIZ Karlsruhe - Leibniz Institute for Information Infrastructure.  All rights reserved.
data_2212-ICSD
_database_code_ICSD 2212
_audit_creation_date 1980-01-01
_audit_update_record 2012-08-01
_chemical_name_common 'Vanadium oxide (4/7) - low-temperature phase'
_chemical_formula_structural 'V4 O7'
_chemical_formula_sum 'O7 V4'
_chemical_name_structure_type V4O7
_exptl_crystal_density_diffrn 4.77
_diffrn_ambient_temperature 120.
_citation_title 'The crystal structure of V4 O7 at 120 K'
loop_
_citation_id
_citation_journal_full
_citation_year
_citation_journal_volume
_citation_page_first
_citation_page_last
_citation_journal_id_ASTM
primary 'Journal of Solid State Chemistry' 1978 23 253 263 JSSCBI
loop_
_citation_author_citation_id
_citation_author_name
primary 'Hodeau, J.L.'
primary 'Marezio, M.'
_cell_length_a 5.503
_cell_length_b 6.997
_cell_length_c 12.256
_cell_angle_alpha 94.86
_cell_angle_beta 95.17
_cell_angle_gamma 109.39
_cell_volume 440.02
_cell_formula_units_Z 4
_space_group_name_H-M_alt 'A -1'
_space_group_IT_number 2
loop_
_space_group_symop_id
_space_group_symop_operation_xyz
1 '-x, -y, -z'
2 'x, y, z'
3 '-x, -y+1/2, -z+1/2'
4 'x, y+1/2, z+1/2'
loop_
_atom_type_symbol
_atom_type_oxidation_number
V3+ 3.5
O2- -2
loop_
_atom_site_label
_atom_site_type_symbol
_atom_site_symmetry_multiplicity
_atom_site_Wyckoff_symbol
_atom_site_fract_x
_atom_site_fract_y
_atom_site_fract_z
_atom_site_B_iso_or_equiv
_atom_site_occupancy
V1 V3+ 4 i 0.2022 0.1404 0.06216 . 1.
V2 V3+ 4 i 0.2362 0.654 0.06961 . 1.
V3 V3+ 4 i 0.6859 0.4406 0.19785 . 1.
V4 V3+ 4 i 0.6797 0.9401 0.19961 . 1.
O1 O2- 4 i 0.1072 0.8538 0.0136 . 1.
O2 O2- 4 i 0.5929 0.7927 0.0466 . 1.
O3 O2- 4 i 0.8574 0.4935 0.0861 . 1.
O4 O2- 4 i 0.3312 0.4349 0.1373 . 1.
O5 O2- 4 i 0.5244 0.1453 0.1641 . 1.
O6 O2- 4 i 0.0415 0.0663 0.1944 . 1.
O7 O2- 4 i 0.2956 0.7931 0.2244 . 1.
loop_
_atom_site_aniso_label
_atom_site_aniso_type_symbol
_atom_site_aniso_beta_11
_atom_site_aniso_beta_22
_atom_site_aniso_beta_33
_atom_site_aniso_beta_12
_atom_site_aniso_beta_13
_atom_site_aniso_beta_23
V1 V3+ 0.0031 0.002 0.00036 0.0011 0.00009 0.00002
V2 V3+ 0.0027 0.0018 0.00053 0.0008 0.00004 0.00017
V3 V3+ 0.0026 0.002 0.00041 0.0008 0.00025 0.00009
V4 V3+ 0.0028 0.0017 0.00055 0.0008 0.00023 0.00013
O1 O2- 0.0039 0.0013 0.0007 0.0013 0. -0.0004
O2 O2- 0.004 0.0024 0.0006 0.0013 0.0001 0.0004
O3 O2- 0.0042 0.0031 0.0005 0.0006 0.0004 0.0002
O4 O2- 0.0029 0.002 0.0006 0.0014 0.0001 -0.0001
O5 O2- 0.0043 0.002 0.0006 0.0012 0. 0.
O6 O2- 0.0021 0.0028 0.0005 0.0011 0.0003 0.0005
O7 O2- 0.0032 0.0016 0.0007 0.0002 0.0004 0.0002
#End of TTdata_2212-ICSD