
#(C) 2022 by FIZ Karlsruhe - Leibniz Institute for Information Infrastructure.  All rights reserved.
data_253821-ICSD
_database_code_ICSD 253821
_audit_creation_date 2018-02-01
_chemical_name_common 'Manganese(II) diniobate(V)'
_chemical_formula_structural 'Mn Nb2 O6'
_chemical_formula_sum 'Mn1 Nb2 O6'
_chemical_name_structure_type Columbite#Nb2FeO6
_exptl_crystal_density_diffrn 5.29
_diffrn_ambient_temperature 280.
_citation_title 'Low dimensional magnetism in MnNb2-xVxO6'
loop_
_citation_id
_citation_journal_full
_citation_year
_citation_journal_volume
_citation_page_first
_citation_page_last
_citation_journal_id_ASTM
primary 'Materials Research Bulletin' 2016 74 169 176 MRBUAC
loop_
_citation_author_citation_id
_citation_author_name
primary 'Hneda, M.L.'
primary 'da Cunha, J.B.M.'
primary 'Gusmao, M.A.C.'
primary 'Isnard, O.'
_cell_length_a 14.428
_cell_length_b 5.7635
_cell_length_c 5.0823
_cell_angle_alpha 90.
_cell_angle_beta 90.
_cell_angle_gamma 90.
_cell_volume 422.62
_cell_formula_units_Z 4
_space_group_name_H-M_alt 'P b c n'
_space_group_IT_number 60
loop_
_space_group_symop_id
_space_group_symop_operation_xyz
1 'x, -y, z+1/2'
2 '-x+1/2, y+1/2, z'
3 'x+1/2, y+1/2, -z+1/2'
4 '-x, -y, -z'
5 '-x, y, -z+1/2'
6 'x+1/2, -y+1/2, -z'
7 '-x+1/2, -y+1/2, z+1/2'
8 'x, y, z'
loop_
_atom_type_symbol
_atom_type_oxidation_number
Mn2+ 2
Nb5+ 5
O2- -2
loop_
_atom_site_label
_atom_site_type_symbol
_atom_site_symmetry_multiplicity
_atom_site_Wyckoff_symbol
_atom_site_fract_x
_atom_site_fract_y
_atom_site_fract_z
_atom_site_B_iso_or_equiv
_atom_site_occupancy
Mn1 Mn2+ 4 c 0. 0.3136 0.25 . 1.
Nb1 Nb5+ 8 d 0.3395 0.316 0.237 . 1.
O1 O2- 8 d 0.0945 0.106 0.066 . 1.
O2 O2- 8 d 0.4197 0.107 0.093 . 1.
O3 O2- 8 d 0.2423 0.128 0.414 . 1.
#End of TTdata_253821-ICSD