
#(C) 2022 by FIZ Karlsruhe - Leibniz Institute for Information Infrastructure.  All rights reserved.
data_1502-ICSD
_database_code_ICSD 1502
_audit_creation_date 1980-01-01
_audit_update_record 2000-07-15
_chemical_name_common 'Vanadium(IV) oxide - Al-doped'
_chemical_formula_structural 'V O2'
_chemical_formula_sum 'O2 V1'
_chemical_name_structure_type VO2(aP12)
_exptl_crystal_density_diffrn 2.34
_diffrn_ambient_temperature 173.
_citation_title
'Structural aspects of the metal-insulator transitions in V0.985 Al0.015 O2'
loop_
_citation_id
_citation_journal_full
_citation_year
_citation_journal_volume
_citation_page_first
_citation_page_last
_citation_journal_id_ASTM
primary 'Journal of Solid State Chemistry' 1977 22 423 438 JSSCBI
loop_
_citation_author_citation_id
_citation_author_name
primary 'Ghedira, M.'
primary 'Vincent, H.'
primary 'Marezio, M.'
primary 'Launay, J.C.'
_cell_length_a 4.5212
_cell_length_b 5.7492
_cell_length_c 9.065
_cell_angle_alpha 90.22
_cell_angle_beta 91.06
_cell_angle_gamma 90.
_cell_volume 235.59
_cell_formula_units_Z 4
_space_group_name_H-M_alt 'P -1'
_space_group_IT_number 2
loop_
_space_group_symop_id
_space_group_symop_operation_xyz
1 '-x, -y, -z'
2 'x, y, z'
loop_
_atom_type_symbol
_atom_type_oxidation_number
V4+ 4
O2- -2
loop_
_atom_site_label
_atom_site_type_symbol
_atom_site_symmetry_multiplicity
_atom_site_Wyckoff_symbol
_atom_site_fract_x
_atom_site_fract_y
_atom_site_fract_z
_atom_site_U_iso_or_equiv
_atom_site_occupancy
V1 V4+ 2 i 0.48988 0.27825 0.49319 . 1.
V2 V4+ 2 i 0.02519 0.01343 0.73329 . 1.
O1 O2- 2 i 0.1928 0.2516 0.3489 0.0073 1.
O2 O2- 2 i 0.2865 0.0006 0.1036 0.006 1.
O3 O2- 2 i 0.2981 0. 0.6 0.0064 1.
O4 O2- 2 i 0.2026 0.757 0.3539 0.0079 1.
loop_
_atom_site_aniso_label
_atom_site_aniso_type_symbol
_atom_site_aniso_U_11
_atom_site_aniso_U_22
_atom_site_aniso_U_33
_atom_site_aniso_U_12
_atom_site_aniso_U_13
_atom_site_aniso_U_23
V1 V4+ 0.0079 0.0069 0.0053 0.0006 0.0008 -0.0021
V2 V4+ 0.0041 0.0113 0.004 -0.0009 -0.0004 0.0022
#End of TTdata_1502-ICSD