
#(C) 2022 by FIZ Karlsruhe - Leibniz Institute for Information Infrastructure.  All rights reserved.
data_236254-ICSD
_database_code_ICSD 236254
_audit_creation_date 2013-08-01
_chemical_name_common 'Dimanganese trioxide - zeta phase, HP HT'
_chemical_formula_structural 'Mn2 O3'
_chemical_formula_sum 'Mn2 O3'
_exptl_crystal_density_diffrn 5.31
_citation_title 'Perovskite-like Mn2 O3: a path to new manganites'
loop_
_citation_id
_citation_journal_full
_citation_year
_citation_journal_volume
_citation_page_first
_citation_page_last
_citation_journal_id_ASTM
primary 'Angewandte Chemie, International Edition' 2013 52 1494 1498 ACIEF5
loop_
_citation_author_citation_id
_citation_author_name
primary 'Ovsyannikov, Sergey V.'
primary 'Abakumov, Artem M.'
primary 'Tsirlin, Alexander A.'
primary 'Schnelle, Walter'
primary 'Egoavil, Ricardo'
primary 'Verbeeck, Jo'
primary 'Van Tendeloo, Gustaaf'
primary 'Glazyrin, Konstantin V.'
primary 'Hanfland, Michael'
primary 'Dubrovinsky, Leonid'
_cell_length_a 10.3043
_cell_length_b 10.3043
_cell_length_c 25.7688
_cell_angle_alpha 90.
_cell_angle_beta 90.
_cell_angle_gamma 120.
_cell_volume 2369.53
_cell_formula_units_Z 48
_space_group_name_H-M_alt 'R -3 H'
_space_group_IT_number 148
loop_
_space_group_symop_id
_space_group_symop_operation_xyz
1 'x-y, x, -z'
2 'y, -x+y, -z'
3 '-x, -y, -z'
4 '-x+y, -x, z'
5 '-y, x-y, z'
6 'x, y, z'
7 'x-y+2/3, x+1/3, -z+1/3'
8 'y+2/3, -x+y+1/3, -z+1/3'
9 '-x+2/3, -y+1/3, -z+1/3'
10 '-x+y+2/3, -x+1/3, z+1/3'
11 '-y+2/3, x-y+1/3, z+1/3'
12 'x+2/3, y+1/3, z+1/3'
13 'x-y+1/3, x+2/3, -z+2/3'
14 'y+1/3, -x+y+2/3, -z+2/3'
15 '-x+1/3, -y+2/3, -z+2/3'
16 '-x+y+1/3, -x+2/3, z+2/3'
17 '-y+1/3, x-y+2/3, z+2/3'
18 'x+1/3, y+2/3, z+2/3'
loop_
_atom_type_symbol
_atom_type_oxidation_number
Mn3+ 3
O2- -2
loop_
_atom_site_label
_atom_site_type_symbol
_atom_site_symmetry_multiplicity
_atom_site_Wyckoff_symbol
_atom_site_fract_x
_atom_site_fract_y
_atom_site_fract_z
_atom_site_U_iso_or_equiv
_atom_site_occupancy
Mn1 Mn3+ 18 f 0.16233 0.33137 0.08387 0.0033 1.
Mn2 Mn3+ 9 e 0.5 0. 0. 0.0033 1.
Mn3 Mn3+ 9 d 0.5 0. 0.5 0.0033 1.
Mn4 Mn3+ 6 c 0. 0. 0.2623 0.0033 1.
Mn5 Mn3+ 3 a 0. 0. 0. 0.0033 1.
Mn6 Mn3+ 3 b 0. 0. 0.5 0.0033 1.
Mn7 Mn3+ 18 f 0.15243 0.31487 0.20697 0.0033 1.
Mn8 Mn3+ 18 f 0.34737 0.17053 0.03983 0.0033 1.
Mn9 Mn3+ 6 c 0. 0. 0.1131 0.0033 1.
Mn10 Mn3+ 6 c 0. 0. 0.3855 0.0033 1.
O1 O2- 18 f 0.03833 0.40167 0.18897 0.0033 1.
O2 O2- 18 f 0.041 0.26 0.2699 0.0033 1.
O3 O2- 18 f 0.03933 0.30667 0.02867 0.0033 1.
O4 O2- 18 f 0.222 0.183 0.2219 0.0033 1.
O5 O2- 18 f 0.01033 0.17267 0.14767 0.0033 1.
O6 O2- 18 f 0.16067 0.14733 0.06743 0.0033 1.
O7 O2- 18 f 0.15633 0.14767 0.33897 0.0033 1.
O8 O2- 18 f 0.00733 0.15467 0.42887 0.0033 1.
#End of TTdata_236254-ICSD