
#(C) 2022 by FIZ Karlsruhe - Leibniz Institute for Information Infrastructure.  All rights reserved.
data_25765-ICSD
_database_code_ICSD 25765
_audit_creation_date 1986-09-25
_chemical_name_common 'Diniobium oxide - R'
_chemical_formula_structural 'Nb2 O5'
_chemical_formula_sum 'Nb2 O5'
_exptl_crystal_density_diffrn 4.53
_citation_title 'Eine weitere neue Modifikation des Niobpentoxids'
loop_
_citation_id
_citation_journal_full
_citation_year
_citation_journal_volume
_citation_page_first
_citation_page_last
_citation_journal_id_ASTM
primary 'Journal of the Less-Common Metals' 1966 11 119 126 JCOMAH
loop_
_citation_author_citation_id
_citation_author_name
primary 'Gruehn, R.'
_cell_length_a 12.79
_cell_length_b 3.826
_cell_length_c 3.983
_cell_angle_alpha 90.
_cell_angle_beta 90.75
_cell_angle_gamma 90.
_cell_volume 194.89
_cell_formula_units_Z 2
_space_group_name_H-M_alt 'C 1 2/m 1'
_space_group_IT_number 12
loop_
_space_group_symop_id
_space_group_symop_operation_xyz
1 '-x, y, -z'
2 '-x, -y, -z'
3 'x, -y, z'
4 'x, y, z'
5 '-x+1/2, y+1/2, -z'
6 '-x+1/2, -y+1/2, -z'
7 'x+1/2, -y+1/2, z'
8 'x+1/2, y+1/2, z'
loop_
_atom_type_symbol
_atom_type_oxidation_number
Nb5+ 5
O2- -2
loop_
_atom_site_label
_atom_site_type_symbol
_atom_site_symmetry_multiplicity
_atom_site_Wyckoff_symbol
_atom_site_fract_x
_atom_site_fract_y
_atom_site_fract_z
_atom_site_B_iso_or_equiv
_atom_site_occupancy
Nb1 Nb5+ 4 i 0.146 0. 0.07 5. 1.
O1 O2- 4 i 0.32 0. 0. 5. 1.
O2 O2- 4 i 0.16 0. 0.5 5. 1.
O3 O2- 2 a 0. 0. 0. 5. 1.
#End of TTdata_25765-ICSD