
#(C) 2022 by FIZ Karlsruhe - Leibniz Institute for Information Infrastructure.  All rights reserved.
data_185418-ICSD
_database_code_ICSD 185418
_audit_creation_date 2013-02-01
_chemical_name_common 'Manganese vanadate(IV)'
_chemical_formula_structural 'Mn (V O3)'
_chemical_formula_sum 'Mn1 O3 V1'
_chemical_name_structure_type Perovskite#GdFeO3
_exptl_crystal_density_diffrn 5.11
_diffrn_ambient_temperature 300.
_citation_title 'Incommensurate spin order in the metallic perovskite Mn V O3'
loop_
_citation_id
_citation_journal_full
_citation_year
_citation_journal_volume
_citation_page_first
_citation_page_last
_citation_journal_id_ASTM
primary 'Physical Review B: Condensed Matter and Materials Physics' 2011 84 1 5
PRBMDO
loop_
_citation_author_citation_id
_citation_author_name
primary 'Markkula, M.'
primary 'Arevalo-Lopez, A.M.'
primary 'Kusmartseva, A.'
primary 'Rodgers, J.A.'
primary 'Ritter, C.'
primary 'Wu Hua'
primary 'Attfield, J.P.'
_cell_length_a 5.2741
_cell_length_b 7.41
_cell_length_c 5.1184
_cell_angle_alpha 90.
_cell_angle_beta 90.
_cell_angle_gamma 90.
_cell_volume 200.03
_cell_formula_units_Z 4
_space_group_name_H-M_alt 'P n m a'
_space_group_IT_number 62
loop_
_space_group_symop_id
_space_group_symop_operation_xyz
1 'x+1/2, y, -z+1/2'
2 'x, -y+1/2, z'
3 '-x+1/2, y+1/2, z+1/2'
4 '-x, -y, -z'
5 '-x+1/2, -y, z+1/2'
6 '-x, y+1/2, -z'
7 'x+1/2, -y+1/2, -z+1/2'
8 'x, y, z'
loop_
_atom_type_symbol
_atom_type_oxidation_number
Mn2+ 2
V4+ 4
O2- -2
loop_
_atom_site_label
_atom_site_type_symbol
_atom_site_symmetry_multiplicity
_atom_site_Wyckoff_symbol
_atom_site_fract_x
_atom_site_fract_y
_atom_site_fract_z
_atom_site_U_iso_or_equiv
_atom_site_occupancy
Mn1 Mn2+ 4 c 0.063 0.25 0.4853 0.017 1.
V1 V4+ 4 a 0. 0. 0. 0.017 1.
O1 O2- 4 c 0.4551 0.25 0.6074 0.009 1.
O2 O2- 8 d 0.2983 0.0582 0.1842 0.01 1.
#End of TTdata_185418-ICSD