
#(C) 2022 by FIZ Karlsruhe - Leibniz Institute for Information Infrastructure.  All rights reserved.
data_428198-ICSD
_database_code_ICSD 428198
_audit_creation_date 2018-02-01
_chemical_name_common 'Vanadium oxide (1/2)'
_chemical_formula_structural 'V O2'
_chemical_formula_sum 'O2 V1'
_exptl_crystal_density_diffrn 4.52
_diffrn_ambient_temperature 298.
_citation_title
'V3.047 O7, a new high-pressure oxide with the simpsonite structure'
loop_
_citation_id
_citation_journal_full
_citation_year
_citation_journal_volume
_citation_page_first
_citation_page_last
_citation_journal_id_ASTM
primary 'Inorganic Materials' 2016 52 902 908 INOMAF
loop_
_citation_author_citation_id
_citation_author_name
primary 'Zibrov, I.P.'
primary 'Filonenko, V.P.'
primary 'Sidorov, V.A.'
primary 'Lyapin, S.G.'
_cell_length_a 7.3733
_cell_length_b 7.3733
_cell_length_c 4.527
_cell_angle_alpha 90.
_cell_angle_beta 90.
_cell_angle_gamma 120.
_cell_volume 213.14
_cell_formula_units_Z 7
_space_group_name_H-M_alt 'P 3'
_space_group_IT_number 143
loop_
_space_group_symop_id
_space_group_symop_operation_xyz
1 '-x+y, -x, z'
2 '-y, x-y, z'
3 'x, y, z'
loop_
_atom_type_symbol
_atom_type_oxidation_number
V4+ 4
O2- -2
V4+ 4
loop_
_atom_site_label
_atom_site_type_symbol
_atom_site_symmetry_multiplicity
_atom_site_Wyckoff_symbol
_atom_site_fract_x
_atom_site_fract_y
_atom_site_fract_z
_atom_site_U_iso_or_equiv
_atom_site_occupancy
V1 V4+ 3 d 0.40009 0.10354 0.07645 0.00963 1.
V2 V4+ 3 d 0.28944 0.39832 0.57667 0.06028 1.
O1 O2- 3 d 0.01984 0.2059 0.31733 0.025 1.
O2 O2- 3 d 0.4772 0.36853 0.44616 0.025 1.
O3 O2- 3 d 0.24636 0.18076 0.8765 0.025 1.
O4 O2- 3 d 0.0639 0.43256 0.75109 0.025 1.
O5 O2- 1 c 0.66667 0.33333 0.88114 0.025 1.
O6 O2- 1 b 0.33333 0.66667 0.41389 0.025 1.
V3 V4+ 1 a 0. 0. 0.02728 0.025 1.
V4 V4+ 1 a 0. 0. 0.5 0.025 0.0001
#End of TTdata_428198-ICSD