
#(C) 2022 by FIZ Karlsruhe - Leibniz Institute for Information Infrastructure.  All rights reserved.
data_262806-ICSD
_database_code_ICSD 262806
_audit_creation_date 2012-08-01
_audit_update_record 2013-02-01
_chemical_name_common 'Manganese(III) vanadium oxide (5/1/8)'
_chemical_formula_structural 'Mn5 V O8'
_chemical_formula_sum 'Mn5 O8 V1'
_exptl_crystal_density_diffrn 4.64
_citation_title
'Synthesis and characterization of the new mixed valent compound Mn5 V O8'
loop_
_citation_id
_citation_journal_full
_citation_year
_citation_journal_volume
_citation_page_first
_citation_page_last
_citation_journal_id_ASTM
primary 'Zeitschrift fuer Anorganische und Allgemeine Chemie (1950) (DE)' 2012
638 1134 1140 ZAACAB
loop_
_citation_author_citation_id
_citation_author_name
primary 'Clemens, O.'
primary 'Haberkorn, R.'
primary 'Kohlmann, H.'
primary 'Springborg, M.'
primary 'Beck, H.P.'
_cell_length_a 19.5605
_cell_length_b 6.2184
_cell_length_c 5.4276
_cell_angle_alpha 90.
_cell_angle_beta 100.078
_cell_angle_gamma 90.
_cell_volume 650.
_cell_formula_units_Z 4
_space_group_name_H-M_alt 'C 1 2/m 1'
_space_group_IT_number 12
loop_
_space_group_symop_id
_space_group_symop_operation_xyz
1 '-x, y, -z'
2 '-x, -y, -z'
3 'x, -y, z'
4 'x, y, z'
5 '-x+1/2, y+1/2, -z'
6 '-x+1/2, -y+1/2, -z'
7 'x+1/2, -y+1/2, z'
8 'x+1/2, y+1/2, z'
loop_
_atom_type_symbol
_atom_type_oxidation_number
Mn3+ 3
Mn2+ 2
V5+ 5
O2- -2
loop_
_atom_site_label
_atom_site_type_symbol
_atom_site_symmetry_multiplicity
_atom_site_Wyckoff_symbol
_atom_site_fract_x
_atom_site_fract_y
_atom_site_fract_z
_atom_site_B_iso_or_equiv
_atom_site_occupancy
Mn1 Mn3+ 2 b 0. 0.5 0. 0.52 1.
Mn2 Mn3+ 2 a 0. 0. 0. 0.52 1.
Mn3 Mn2+ 4 i 0.1317 0. 0.7569 0.52 1.
Mn4 Mn2+ 4 h 0. 0.2582 0.5 0.52 1.
Mn5 Mn2+ 8 j 0.132 0.2589 0.255 0.52 1.
V1 V5+ 4 i 0.2865 0. 0.2013 0.08 1.
O1 O2- 8 j 0.3165 0.2228 0.356 0.85 1.
O2 O2- 8 j 0.4461 0.277 0.109 0.85 1.
O3 O2- 4 i 0.0654 0. 0.38 0.85 1.
O4 O2- 4 i 0.558 0. 0.341 0.85 1.
O5 O2- 4 i 0.6873 0. 0.083 0.85 1.
O6 O2- 4 i 0.1921 0. 0.141 0.85 1.
#End of TTdata_262806-ICSD