
#(C) 2022 by FIZ Karlsruhe - Leibniz Institute for Information Infrastructure.  All rights reserved.
data_93109-ICSD
_database_code_ICSD 93109
_audit_creation_date 2003-04-01
_chemical_name_common 'Niobium oxide (12/29)'
_chemical_formula_structural 'Nb12 O29'
_chemical_formula_sum 'Nb12 O29'
_chemical_name_structure_type Ti2Nb10O29
_exptl_crystal_density_diffrn 4.58
_diffrn_ambient_temperature 300.
_citation_title 'Charge and spin ordering in monoclinic Nb12 O29'
loop_
_citation_id
_citation_journal_full
_citation_year
_citation_journal_volume
_citation_page_first
_citation_page_last
_citation_journal_id_ASTM
primary 'Journal of the American Chemical Society' 2001 123 5833 5834 JACSAT
loop_
_citation_author_citation_id
_citation_author_name
primary 'Waldron, J.E.L.'
primary 'Green, M.A.'
primary 'Neumann, D.A.'
_cell_length_a 20.7098
_cell_length_b 3.8307
_cell_length_c 15.6856
_cell_angle_alpha 90.
_cell_angle_beta 113.056
_cell_angle_gamma 90.
_cell_volume 1144.99
_cell_formula_units_Z 2
_space_group_name_H-M_alt 'C 1 2/m 1'
_space_group_IT_number 12
loop_
_space_group_symop_id
_space_group_symop_operation_xyz
1 '-x, y, -z'
2 '-x, -y, -z'
3 'x, -y, z'
4 'x, y, z'
5 '-x+1/2, y+1/2, -z'
6 '-x+1/2, -y+1/2, -z'
7 'x+1/2, -y+1/2, z'
8 'x+1/2, y+1/2, z'
loop_
_atom_type_symbol
_atom_type_oxidation_number
Nb5+ 5
Nb4+ 4
O2- -2
loop_
_atom_site_label
_atom_site_type_symbol
_atom_site_symmetry_multiplicity
_atom_site_Wyckoff_symbol
_atom_site_fract_x
_atom_site_fract_y
_atom_site_fract_z
_atom_site_B_iso_or_equiv
_atom_site_occupancy
Nb1 Nb5+ 4 i 0.0689 0. 0.6004 . 1.
Nb2 Nb5+ 4 i 0.3004 0. 0.4003 . 1.
Nb3 Nb5+ 4 i 0.1178 0. 0.4015 . 1.
Nb4 Nb5+ 4 i 0.8545 0. 0.1275 . 1.
Nb5 Nb5+ 4 i 0.2254 0. 0.1334 . 1.
Nb6 Nb4+ 4 i 0.0418 0. 0.1349 . 1.
O1 O2- 2 a 0. 0. 0. . 1.
O2 O2- 4 i 0.1626 0. 0.5679 . 1.
O3 O2- 4 i 0.3665 0. 0.5598 . 1.
O4 O2- 4 i 0.4119 0. 0.4201 . 1.
O5 O2- 4 i 0.2276 0. 0.4286 . 1.
O6 O2- 4 i 0.0217 0. 0.4282 . 1.
O7 O2- 4 i 0.1027 0. 0.727 . 1.
O8 O2- 4 i 0.2701 0. 0.2766 . 1.
O9 O2- 4 i 0.0814 0. 0.2885 . 1.
O10 O2- 4 i 0.0541 0. 0.8598 . 1.
O11 O2- 4 i 0.7478 0. 0.1378 . 1.
O12 O2- 4 i 0.5412 0. 0.1452 . 1.
O13 O2- 4 i 0.3357 0. 0.1385 . 1.
O14 O2- 4 i 0.1349 0. 0.1353 . 1.
O15 O2- 4 i 0.8107 0. 0.0049 . 1.
#End of TTdata_93109-ICSD