
#(C) 2022 by FIZ Karlsruhe - Leibniz Institute for Information Infrastructure.  All rights reserved.
data_82152-ICSD
_database_code_ICSD 82152
_audit_creation_date 1999-11-30
_chemical_name_common 'Divanadium pentaoxide'
_chemical_formula_structural 'V2 O5'
_chemical_formula_sum 'O5 V2'
_exptl_crystal_density_diffrn 3.34
_citation_title

;
Crystal structure of the product of Mg(2+) insertion into V2 O5 single
crystals
;
loop_
_citation_id
_citation_journal_full
_citation_year
_citation_journal_volume
_citation_page_first
_citation_page_last
_citation_journal_id_ASTM
primary 'Journal of Solid State Chemistry' 1996 123 317 323 JSSCBI
loop_
_citation_author_citation_id
_citation_author_name
primary 'Shklover, V.'
primary 'Haibach, T.'
primary 'Ried, F.'
primary 'Nesper, R.'
primary 'Novak, P.'
_cell_length_a 3.571
_cell_length_b 11.544
_cell_length_c 4.383
_cell_angle_alpha 90.
_cell_angle_beta 90.
_cell_angle_gamma 90.
_cell_volume 180.68
_cell_formula_units_Z 2
_space_group_name_H-M_alt 'P m m n Z'
_space_group_IT_number 59
loop_
_space_group_symop_id
_space_group_symop_operation_xyz
1 'x+1/2, y+1/2, -z'
2 '-x, y+1/2, -z'
3 'x+1/2, -y, -z'
4 '-x, -y, -z'
5 '-x+1/2, -y+1/2, z'
6 'x, -y+1/2, z'
7 '-x+1/2, y, z'
8 'x, y, z'
loop_
_atom_type_symbol
_atom_type_oxidation_number
V5+ 5
O2- -2
loop_
_atom_site_label
_atom_site_type_symbol
_atom_site_symmetry_multiplicity
_atom_site_Wyckoff_symbol
_atom_site_fract_x
_atom_site_fract_y
_atom_site_fract_z
_atom_site_U_iso_or_equiv
_atom_site_occupancy
V1 V5+ 4 e 0.25 0.10123 0.3914 0.0075 1.
O1 O2- 4 e 0.25 0.5691 0.5028 0.0099 1.
O2 O2- 4 e 0.25 0.1045 0.0303 0.0174 1.
O3 O2- 2 a 0.25 0.25 0.4992 0.0127 1.
#End of TTdata_82152-ICSD