
#(C) 2022 by FIZ Karlsruhe - Leibniz Institute for Information Infrastructure.  All rights reserved.
data_19012-ICSD
_database_code_ICSD 19012
_audit_creation_date 1980-01-01
_audit_update_record 2006-04-01
_chemical_name_common 'Vanadium oxide (4/7)'
_chemical_formula_structural 'V4 O7'
_chemical_formula_sum 'O7 V4'
_chemical_name_structure_type V4O7
_exptl_crystal_density_diffrn 4.75
_diffrn_ambient_temperature 298.
_citation_title 'Structural aspects of the metal-insulator transition in V4 O7'
loop_
_citation_id
_citation_journal_full
_citation_year
_citation_journal_volume
_citation_page_first
_citation_page_last
_citation_journal_id_ASTM
primary 'Journal of Solid State Chemistry' 1973 6 419 429 JSSCBI
loop_
_citation_author_citation_id
_citation_author_name
primary 'Marezio, M.'
primary 'McWhan, D.B.'
primary 'Dernier, P.D.'
primary 'Remeika, J.P.'
_cell_length_a 5.509
_cell_length_b 7.008
_cell_length_c 12.258
_cell_angle_alpha 95.09
_cell_angle_beta 95.19
_cell_angle_gamma 109.21
_cell_volume 441.52
_cell_formula_units_Z 4
_space_group_name_H-M_alt 'A -1'
_space_group_IT_number 2
loop_
_space_group_symop_id
_space_group_symop_operation_xyz
1 '-x, -y, -z'
2 'x, y, z'
3 '-x, -y+1/2, -z+1/2'
4 'x, y+1/2, z+1/2'
loop_
_atom_type_symbol
_atom_type_oxidation_number
V3+ 3.5
O2- -2
loop_
_atom_site_label
_atom_site_type_symbol
_atom_site_symmetry_multiplicity
_atom_site_Wyckoff_symbol
_atom_site_fract_x
_atom_site_fract_y
_atom_site_fract_z
_atom_site_B_iso_or_equiv
_atom_site_occupancy
V1 V3+ 4 i 0.21437 0.1474 0.06317 . 1.
V2 V3+ 4 i 0.22314 0.65454 0.06686 . 1.
V3 V3+ 4 i 0.68224 0.44016 0.19969 . 1.
V4 V3+ 4 i 0.68743 0.94206 0.20173 . 1.
O1 O2- 4 i 0.1014 0.8576 0.015 . 1.
O2 O2- 4 i 0.5852 0.7954 0.0542 . 1.
O3 O2- 4 i 0.8547 0.4937 0.0835 . 1.
O4 O2- 4 i 0.3265 0.4356 0.1374 . 1.
O5 O2- 4 i 0.5257 0.1437 0.1643 . 1.
O6 O2- 4 i 0.0309 0.0639 0.1977 . 1.
O7 O2- 4 i 0.2953 0.7921 0.2245 . 1.
loop_
_atom_site_aniso_label
_atom_site_aniso_type_symbol
_atom_site_aniso_beta_11
_atom_site_aniso_beta_22
_atom_site_aniso_beta_33
_atom_site_aniso_beta_12
_atom_site_aniso_beta_13
_atom_site_aniso_beta_23
V1 V3+ 0.003 0.00239 0.00066 0.0015 -0.00019 -0.00008
V2 V3+ 0.0029 0.00239 0.00063 0.00142 0.00006 0.00001
V3 V3+ 0.0025 0.00221 0.00063 0.00124 0.00022 -0.00009
V4 V3+ 0.0028 0.00253 0.00069 0.00178 0.00031 0.0001
O1 O2- 0.0039 0.0025 0.000108 0.0019 -0.0002 0.
O2 O2- 0.0029 0.0035 0.00084 0.0009 0.0001 0.
O3 O2- 0.0041 0.0033 0.00082 0.0015 0.0005 0.0002
O4 O2- 0.0048 0.0031 0.00057 0.0022 0. 0.0001
O5 O2- 0.0033 0.0023 0.00063 0.0014 -0.0001 0.
O6 O2- 0.003 0.0032 0.00107 0.0015 -0.0001 0.
O7 O2- 0.0034 0.0028 0.00065 0.0018 -0.0001 0.0001
#End of TTdata_19012-ICSD