
#(C) 2022 by FIZ Karlsruhe - Leibniz Institute for Information Infrastructure.  All rights reserved.
data_2211-ICSD
_database_code_ICSD 2211
_audit_creation_date 1980-01-01
_audit_update_record 2012-08-01
_chemical_name_common 'Vanadium oxide (4/7)'
_chemical_formula_structural 'V4 O7'
_chemical_formula_sum 'O7 V4'
_chemical_name_structure_type V4O7
_exptl_crystal_density_diffrn 4.75
_citation_title 'The crystal structure of V4 O7 at 120 K'
loop_
_citation_id
_citation_journal_full
_citation_year
_citation_journal_volume
_citation_page_first
_citation_page_last
_citation_journal_id_ASTM
primary 'Journal of Solid State Chemistry' 1978 23 253 263 JSSCBI
loop_
_citation_author_citation_id
_citation_author_name
primary 'Hodeau, J.L.'
primary 'Marezio, M.'
_cell_length_a 5.509
_cell_length_b 7.008
_cell_length_c 12.256
_cell_angle_alpha 95.1
_cell_angle_beta 95.17
_cell_angle_gamma 109.25
_cell_volume 441.34
_cell_formula_units_Z 4
_space_group_name_H-M_alt 'A -1'
_space_group_IT_number 2
loop_
_space_group_symop_id
_space_group_symop_operation_xyz
1 '-x, -y, -z'
2 'x, y, z'
3 '-x, -y+1/2, -z+1/2'
4 'x, y+1/2, z+1/2'
loop_
_atom_type_symbol
_atom_type_oxidation_number
V3+ 3.5
O2- -2
loop_
_atom_site_label
_atom_site_type_symbol
_atom_site_symmetry_multiplicity
_atom_site_Wyckoff_symbol
_atom_site_fract_x
_atom_site_fract_y
_atom_site_fract_z
_atom_site_B_iso_or_equiv
_atom_site_occupancy
V1 V3+ 4 i 0.2146 0.1468 0.0629 . 1.
V2 V3+ 4 i 0.223 0.655 0.0671 . 1.
V3 V3+ 4 i 0.6822 0.4403 0.1996 . 1.
V4 V3+ 4 i 0.6874 0.9419 0.2018 . 1.
O1 O2- 4 i 0.1005 0.8576 0.0105 . 1.
O2 O2- 4 i 0.5864 0.7958 0.0545 . 1.
O3 O2- 4 i 0.8549 0.4932 0.0836 . 1.
O4 O2- 4 i 0.3271 0.4367 0.1373 . 1.
O5 O2- 4 i 0.5257 0.1433 0.1642 . 1.
O6 O2- 4 i 0.0309 0.0641 0.1982 . 1.
O7 O2- 4 i 0.2955 0.7922 0.2243 . 1.
loop_
_atom_site_aniso_label
_atom_site_aniso_type_symbol
_atom_site_aniso_beta_11
_atom_site_aniso_beta_22
_atom_site_aniso_beta_33
_atom_site_aniso_beta_12
_atom_site_aniso_beta_13
_atom_site_aniso_beta_23
V1 V3+ 0.0046 0.0025 0.00062 0.0012 0.0001 0.0001
V2 V3+ 0.0045 0.0023 0.00085 0.0014 0.00025 0.00016
V3 V3+ 0.0036 0.0025 0.00073 0.0009 0.0004 0.00017
V4 V3+ 0.0044 0.0025 0.00086 0.0016 0.00047 0.00035
O1 O2- 0.0061 0.0034 0.0012 0.0022 0. 0.0005
O2 O2- 0.0053 0.0041 0.0009 0.0008 0.0003 0.0004
O3 O2- 0.0053 0.0033 0.0009 0.001 0.0007 0.0005
O4 O2- 0.0056 0.0018 0.0009 0.0015 0.0001 0.0001
O5 O2- 0.0041 0.0021 0.001 0.001 0.0002 0.0004
O6 O2- 0.005 0.0033 0.001 0.0014 0.0001 0.0001
O7 O2- 0.0049 0.0022 0.0008 0.0012 0.0001 0.0001
#End of TTdata_2211-ICSD