
#(C) 2022 by FIZ Karlsruhe - Leibniz Institute for Information Infrastructure.  All rights reserved.
data_236255-ICSD
_database_code_ICSD 236255
_audit_creation_date 2013-08-01
_chemical_name_common 'Dimanganese trioxide - zeta phase, HP HT'
_chemical_formula_structural 'Mn2 O3'
_chemical_formula_sum 'Mn2 O3'
_exptl_crystal_density_diffrn 5.33
_citation_title 'Perovskite-like Mn2 O3: a path to new manganites'
loop_
_citation_id
_citation_journal_full
_citation_year
_citation_journal_volume
_citation_page_first
_citation_page_last
_citation_journal_id_ASTM
primary 'Angewandte Chemie, International Edition' 2013 52 1494 1498 ACIEF5
loop_
_citation_author_citation_id
_citation_author_name
primary 'Ovsyannikov, Sergey V.'
primary 'Abakumov, Artem M.'
primary 'Tsirlin, Alexander A.'
primary 'Schnelle, Walter'
primary 'Egoavil, Ricardo'
primary 'Verbeeck, Jo'
primary 'Van Tendeloo, Gustaaf'
primary 'Glazyrin, Konstantin V.'
primary 'Hanfland, Michael'
primary 'Dubrovinsky, Leonid'
_cell_length_a 14.6482
_cell_length_b 14.6482
_cell_length_c 14.6705
_cell_angle_alpha 89.2108
_cell_angle_beta 89.2031
_cell_angle_gamma 89.196
_cell_volume 3146.94
_cell_formula_units_Z 64
_space_group_name_H-M_alt 'F -1'
_space_group_IT_number 2
loop_
_space_group_symop_id
_space_group_symop_operation_xyz
1 '-x, -y, -z'
2 'x, y, z'
3 '-x, -y+1/2, -z+1/2'
4 'x, y+1/2, z+1/2'
5 '-x+1/2, -y, -z+1/2'
6 'x+1/2, y, z+1/2'
7 '-x+1/2, -y+1/2, -z'
8 'x+1/2, y+1/2, z'
loop_
_atom_type_symbol
_atom_type_oxidation_number
Mn3+ 3
O2- -2
loop_
_atom_site_label
_atom_site_type_symbol
_atom_site_symmetry_multiplicity
_atom_site_Wyckoff_symbol
_atom_site_fract_x
_atom_site_fract_y
_atom_site_fract_z
_atom_site_U_iso_or_equiv
_atom_site_occupancy
Mn1 Mn3+ 8 i 0.7501 0.9973 0.5002 0.0056 1.
Mn2 Mn3+ 8 i 0.5002 0.7501 0.9973 0.0056 1.
Mn3 Mn3+ 8 i 0.9973 0.5002 0.7501 0.0056 1.
Mn4 Mn3+ 4 b 0.25 0.75 0.5 0.0056 1.
Mn5 Mn3+ 4 d 0.5 0.25 0.75 0.0056 1.
Mn6 Mn3+ 4 c 0.75 0.5 0.25 0.0056 1.
Mn7 Mn3+ 4 e 0.75 0.25 0. 0.0056 1.
Mn8 Mn3+ 4 g 0. 0.75 0.25 0.0056 1.
Mn9 Mn3+ 4 f 0.25 0. 0.75 0.0056 1.
Mn10 Mn3+ 8 i 0.7618 0.7669 0.7565 0.0056 1.
Mn11 Mn3+ 4 h 0.5 0.5 0.5 0.0056 1.
Mn12 Mn3+ 4 a 0. 0. 0. 0.0056 1.
Mn13 Mn3+ 8 i 0.6266 0.3643 0.1297 0.0056 1.
Mn14 Mn3+ 8 i 0.1297 0.6266 0.3643 0.0056 1.
Mn15 Mn3+ 8 i 0.3643 0.1297 0.6266 0.0056 1.
Mn16 Mn3+ 8 i 0.8669 0.1266 0.6263 0.0056 1.
Mn17 Mn3+ 8 i 0.6263 0.8669 0.1266 0.0056 1.
Mn18 Mn3+ 8 i 0.1266 0.6263 0.8669 0.0056 1.
Mn19 Mn3+ 8 i 0.3893 0.3918 0.3818 0.0056 1.
Mn20 Mn3+ 8 i 0.8875 0.8892 0.8805 0.0056 1.
O1 O2- 8 i 0.6696 0.008 0.3901 0.0056 1.
O2 O2- 8 i 0.3901 0.6696 0.008 0.0056 1.
O3 O2- 8 i 0.008 0.3901 0.6696 0.0056 1.
O4 O2- 8 i 0.1005 0.2536 0.3352 0.0056 1.
O5 O2- 8 i 0.3352 0.1005 0.2536 0.0056 1.
O6 O2- 8 i 0.2536 0.3352 0.1005 0.0056 1.
O7 O2- 8 i 0.8191 0.9899 0.6039 0.0056 1.
O8 O2- 8 i 0.6039 0.8191 0.9899 0.0056 1.
O9 O2- 8 i 0.9899 0.6039 0.8191 0.0056 1.
O10 O2- 8 i 0.89 0.2579 0.6842 0.0056 1.
O11 O2- 8 i 0.6842 0.89 0.2579 0.0056 1.
O12 O2- 8 i 0.2579 0.6842 0.89 0.0056 1.
O13 O2- 8 i 0.5709 0.2313 0.143 0.0056 1.
O14 O2- 8 i 0.143 0.5709 0.2313 0.0056 1.
O15 O2- 8 i 0.2313 0.143 0.5709 0.0056 1.
O16 O2- 8 i 0.144 0.986 0.595 0.0056 1.
O17 O2- 8 i 0.571 0.142 0.997 0.0056 1.
O18 O2- 8 i 0.985 0.562 0.138 0.0056 1.
O19 O2- 8 i 0.916 0.263 0.355 0.0056 1.
O20 O2- 8 i 0.35 0.926 0.261 0.0056 1.
O21 O2- 8 i 0.253 0.327 0.901 0.0056 1.
O22 O2- 8 i 0.846 0.51 0.403 0.0056 1.
O23 O2- 8 i 0.434 0.857 0.503 0.0056 1.
O24 O2- 8 i 0.513 0.438 0.859 0.0056 1.
#End of TTdata_236255-ICSD