
#(C) 2022 by FIZ Karlsruhe - Leibniz Institute for Information Infrastructure.  All rights reserved.
data_259896-ICSD
_database_code_ICSD 259896
_audit_creation_date 2019-02-01
_chemical_name_common 'Vanadium oxide (6/11)'
_chemical_formula_structural 'V6 O11'
_chemical_formula_sum 'O11 V6'
_exptl_crystal_density_diffrn 4.72
_citation_title

;
Spark plasma sintering (SPS)-assisted synthesis and thermoelectric
characterization of Magneli phase V6O11
;
loop_
_citation_id
_citation_journal_full
_citation_year
_citation_journal_volume
_citation_page_first
_citation_page_last
_citation_journal_id_ASTM
primary 'Inorganic Chemistry' 2018 57 1259 1268 INOCAJ
loop_
_citation_author_citation_id
_citation_author_name
primary 'Joos, Markus'
primary 'Cerretti, Giacomo'
primary 'Veremchuk, Igor'
primary 'Hofmann, Patrick'
primary 'Frerichs, Hajo'
primary 'Anjum, Dalaver H.'
primary 'Reich, Tobias'
primary 'Lieberwirth, Ingo'
primary 'Panthoefer, Martin'
primary 'Zeier, Wolfgang G.'
primary 'Tremel, Wolfgang'
_cell_length_a 5.447
_cell_length_b 7.0062
_cell_length_c 9.5673
_cell_angle_alpha 90.016
_cell_angle_beta 100.575
_cell_angle_gamma 108.899
_cell_volume 338.86
_cell_formula_units_Z 2
_space_group_name_H-M_alt 'P -1'
_space_group_IT_number 2
loop_
_space_group_symop_id
_space_group_symop_operation_xyz
1 '-x, -y, -z'
2 'x, y, z'
loop_
_atom_type_symbol
_atom_type_oxidation_number
V3+ 3.667
O2- -2
loop_
_atom_site_label
_atom_site_type_symbol
_atom_site_symmetry_multiplicity
_atom_site_Wyckoff_symbol
_atom_site_fract_x
_atom_site_fract_y
_atom_site_fract_z
_atom_site_B_iso_or_equiv
_atom_site_occupancy
V1 V3+ 2 i 0.3084 0.0739 0.74288 0.104 1.
V2 V3+ 2 i 0.2281 0.1381 0.08348 0.104 1.
V3 V3+ 2 i 0.1725 0.695 0.43195 0.104 1.
V4 V3+ 2 i 0.1812 0.1982 0.43891 0.104 1.
V5 V3+ 2 i 0.2277 0.6376 0.08516 0.104 1.
V6 V3+ 2 i 0.6865 0.4182 0.25824 0.104 1.
O1 O2- 2 i 0.3289 0.756 0.2873 0.136 1.
O2 O2- 2 i 0.5194 0.3244 0.432 0.136 1.
O3 O2- 2 i 0.8717 0.481 0.1075 0.136 1.
O4 O2- 2 i 0.0968 0.8541 0.0264 0.136 1.
O5 O2- 2 i 0.785 0.0425 0.4646 0.136 1.
O6 O2- 2 i 0.3561 0.421 0.1522 0.136 1.
O7 O2- 2 i 0.5631 0.1377 0.203 0.136 1.
O8 O2- 2 i 0.5935 0.7996 0.0732 0.136 1.
O9 O2- 2 i 0.0096 0.4044 0.3891 0.136 1.
O10 O2- 2 i 0.1955 0.3031 0.6502 0.136 1.
O11 O2- 2 i 0.0572 0.0735 0.2533 0.136 1.
#End of TTdata_259896-ICSD