
#(C) 2022 by FIZ Karlsruhe - Leibniz Institute for Information Infrastructure.  All rights reserved.
data_112712-ICSD
_database_code_ICSD 112712
_audit_creation_date 2022-02-01
_chemical_name_common 'Manganese dioxide - R'
_chemical_formula_structural 'Mn O2'
_chemical_formula_sum 'Mn1 O2'
_chemical_name_structure_type MnO2
_chemical_name_mineral Ramsdellite
_exptl_crystal_density_diffrn 4.8
_diffrn_ambient_temperature 293.
_citation_title
'High-temperature ramsdellite-pyrolusite transformation kinetics'
loop_
_citation_id
_citation_journal_full
_citation_year
_citation_journal_volume
_citation_page_first
_citation_page_last
_citation_journal_id_ASTM
primary 'Physics and Chemistry of Minerals' 2021 48 '' '' PCMIDU
loop_
_citation_author_citation_id
_citation_author_name
primary 'Curetti, Nadia'
primary 'Bernasconi, Davide'
primary 'Benna, Piera'
primary 'Fiore, Gianluca'
primary 'Pavese, Alessandro'
_cell_length_a 9.267
_cell_length_b 2.8644
_cell_length_c 4.532
_cell_angle_alpha 90.
_cell_angle_beta 90.
_cell_angle_gamma 90.
_cell_volume 120.3
_cell_formula_units_Z 4
_space_group_name_H-M_alt 'P n m a'
_space_group_IT_number 62
loop_
_space_group_symop_id
_space_group_symop_operation_xyz
1 'x+1/2, y, -z+1/2'
2 'x, -y+1/2, z'
3 '-x+1/2, y+1/2, z+1/2'
4 '-x, -y, -z'
5 '-x+1/2, -y, z+1/2'
6 '-x, y+1/2, -z'
7 'x+1/2, -y+1/2, -z+1/2'
8 'x, y, z'
loop_
_atom_type_symbol
_atom_type_oxidation_number
Mn4+ 4
O2- -2
loop_
_atom_site_label
_atom_site_type_symbol
_atom_site_symmetry_multiplicity
_atom_site_Wyckoff_symbol
_atom_site_fract_x
_atom_site_fract_y
_atom_site_fract_z
_atom_site_U_iso_or_equiv
_atom_site_occupancy
Mn1 Mn4+ 4 c 0.36501 0.25 0.03034 0.0102 1.
O1 O2- 4 c 0.222 0.25 0.3283 0.0129 1.
O2 O2- 4 c 0.0329 0.25 0.7178 0.0115 1.
loop_
_atom_site_aniso_label
_atom_site_aniso_type_symbol
_atom_site_aniso_U_11
_atom_site_aniso_U_22
_atom_site_aniso_U_33
_atom_site_aniso_U_12
_atom_site_aniso_U_13
_atom_site_aniso_U_23
Mn1 Mn4+ 0.0101 0.0161 0.0045 -0.0002 0. 0.
O1 O2- 0.0136 0.0193 0.0057 -0.0047 0. 0.
O2 O2- 0.009 0.0185 0.0069 -0.0002 0. 0.
#End of TTdata_112712-ICSD