
#(C) 2022 by FIZ Karlsruhe - Leibniz Institute for Information Infrastructure.  All rights reserved.
data_1840-ICSD
_database_code_ICSD 1840
_audit_creation_date 1980-01-01
_audit_update_record 2013-02-01
_chemical_name_common 'Niobium oxide (16.8/42) - T'
_chemical_formula_structural 'Nb16.8 O42'
_chemical_formula_sum 'Nb16.8 O42'
_exptl_crystal_density_diffrn 5.24
_citation_title 'Die Kristallstruktur von  T-Nb2 O5'
loop_
_citation_id
_citation_journal_full
_citation_year
_citation_journal_volume
_citation_page_first
_citation_page_last
_citation_journal_id_ASTM
primary

;
Acta Crystallographica, Section B: Structural Crystallography and Crystal
Chemistry
; 1975 31 673 677 ACBCAR
loop_
_citation_author_citation_id
_citation_author_name
primary 'Kato, K.'
primary 'Tamura, S.'
_cell_length_a 6.175
_cell_length_b 29.175
_cell_length_c 3.93
_cell_angle_alpha 90.
_cell_angle_beta 90.
_cell_angle_gamma 90.
_cell_volume 708.01
_cell_formula_units_Z 1
_space_group_name_H-M_alt 'P b a m'
_space_group_IT_number 55
loop_
_space_group_symop_id
_space_group_symop_operation_xyz
1 'x+1/2, -y+1/2, z'
2 '-x+1/2, y+1/2, z'
3 'x, y, -z'
4 '-x, -y, -z'
5 '-x+1/2, y+1/2, -z'
6 'x+1/2, -y+1/2, -z'
7 '-x, -y, z'
8 'x, y, z'
loop_
_atom_type_symbol
_atom_type_oxidation_number
Nb5+ 5
O2- -2
loop_
_atom_site_label
_atom_site_type_symbol
_atom_site_symmetry_multiplicity
_atom_site_Wyckoff_symbol
_atom_site_fract_x
_atom_site_fract_y
_atom_site_fract_z
_atom_site_B_iso_or_equiv
_atom_site_occupancy
Nb1 Nb5+ 8 i 0.2807 0.03551 0.0445 . 0.5
Nb2 Nb5+ 8 i 0.1857 0.1537 0.0477 . 0.5
Nb3 Nb5+ 8 i 0.2522 0.27586 0.047 . 0.5
Nb4 Nb5+ 8 i 0.2376 0.40702 0.0543 . 0.5
Nb5 Nb5+ 4 h 0.054 0.3379 0.5 6.8 0.08
Nb6 Nb5+ 4 h 0.434 0.4776 0.5 1.3 0.08
Nb7 Nb5+ 4 h 0.435 0.213 0.5 . 0.04
O1 O2- 4 h 0.2823 0.03881 0.5 0.42 1.
O2 O2- 4 h 0.19 0.15621 0.5 1.07 1.
O3 O2- 4 h 0.2464 0.27816 0.5 1.82 1.
O4 O2- 4 h 0.2616 0.41403 0.5 0.86 1.
O5 O2- 4 g 0.0627 0.08789 0. 1.24 1.
O6 O2- 4 g 0.07 0.21991 0. 0.79 1.
O7 O2- 4 g 0.3423 0.34409 0. 0.81 1.
O8 O2- 4 g 0.1166 0.46876 0. 1.25 1.
O9 O2- 4 g 0.436 0.10596 0. 0.72 1.
O10 O2- 4 g 0.456 0.19642 0. 2.47 1.
O11 O2- 2 a 0. 0. 0. 2.37 1.
loop_
_atom_site_aniso_label
_atom_site_aniso_type_symbol
_atom_site_aniso_beta_11
_atom_site_aniso_beta_22
_atom_site_aniso_beta_33
_atom_site_aniso_beta_12
_atom_site_aniso_beta_13
_atom_site_aniso_beta_23
Nb1 Nb5+ 0.0212 0.00033 0.005 0.00131 0.0006 -0.0002
Nb2 Nb5+ 0.0062 0.00031 0.016 -0.00075 -0.001 0.
Nb3 Nb5+ 0.0155 0.00059 0.016 -0.00183 0.0021 -0.0003
Nb4 Nb5+ 0.0052 0.00037 0.021 -0.0002 0.0024 -0.0003
#End of TTdata_1840-ICSD