
#(C) 2022 by FIZ Karlsruhe - Leibniz Institute for Information Infrastructure.  All rights reserved.
data_80594-ICSD
_database_code_ICSD 80594
_audit_creation_date 1997-05-13
_chemical_name_common 'Vanadium oxide - gamma''
_chemical_formula_structural 'V2 O5'
_chemical_formula_sum 'O5 V2'
_exptl_crystal_density_diffrn 3.37
_citation_title
'On the preparation and characterization of a new polymorph of V2 O5'
loop_
_citation_id
_citation_journal_full
_citation_year
_citation_journal_volume
_citation_page_first
_citation_page_last
_citation_journal_id_ASTM
primary 'Journal of Solid State Chemistry' 1991 93 497 502 JSSCBI
loop_
_citation_author_citation_id
_citation_author_name
primary 'Cocciantelli, J.M.'
primary 'Gravereau, P.'
primary 'Doumerc, J.P.'
primary 'Pouchard, M.'
primary 'Hagenmuller, P.'
_cell_length_a 9.9461
_cell_length_b 3.5852
_cell_length_c 10.0423
_cell_angle_alpha 90.
_cell_angle_beta 90.
_cell_angle_gamma 90.
_cell_volume 358.1
_cell_formula_units_Z 4
_space_group_name_H-M_alt 'P n m a'
_space_group_IT_number 62
loop_
_space_group_symop_id
_space_group_symop_operation_xyz
1 'x+1/2, y, -z+1/2'
2 'x, -y+1/2, z'
3 '-x+1/2, y+1/2, z+1/2'
4 '-x, -y, -z'
5 '-x+1/2, -y, z+1/2'
6 '-x, y+1/2, -z'
7 'x+1/2, -y+1/2, -z+1/2'
8 'x, y, z'
loop_
_atom_type_symbol
_atom_type_oxidation_number
V5+ 5
O2- -2
loop_
_atom_site_label
_atom_site_type_symbol
_atom_site_symmetry_multiplicity
_atom_site_Wyckoff_symbol
_atom_site_fract_x
_atom_site_fract_y
_atom_site_fract_z
_atom_site_B_iso_or_equiv
_atom_site_occupancy
V1 V5+ 4 c 0.1242 0.25 0.0164 1.24 1.
V2 V5+ 4 c 0.4301 0.25 0.1015 1.5 1.
O1 O2- 4 c 0.2479 0.25 0.1369 3.1 1.
O2 O2- 4 c 0.0003 0.25 0.2571 1.5 1.
O3 O2- 4 c 0.2066 0.25 0.8856 4.4 1.
O4 O2- 4 c 0.4324 0.25 0.5384 1.6 1.
O5 O2- 4 c 0.0675 0.25 0.54 3. 1.
#End of TTdata_80594-ICSD