
#(C) 2022 by FIZ Karlsruhe - Leibniz Institute for Information Infrastructure.  All rights reserved.
data_19214-ICSD
_database_code_ICSD 19214
_audit_creation_date 2021-08-01
_chemical_name_common 'Tetramanganese diniobate'
_chemical_formula_structural 'Mn4 Nb2 O9'
_chemical_formula_sum 'Mn4 Nb2 O9'
_chemical_name_structure_type Co4(Nb2O9)
_exptl_crystal_density_diffrn 5.26
_diffrn_ambient_temperature 5.
_citation_title

;
Large easy-plane anisotropy induced spin reorientation in magnetoelectric
materials (Co$_{4-x}$Mn$_x$)Nb$_2$O$_9$
;
loop_
_citation_id
_citation_journal_full
_citation_year
_citation_journal_volume
_citation_page_first
_citation_page_last
_citation_journal_id_ASTM
primary 'Journal of Physics: Condensed Matter' 2019 31 1 12 JCOMEL
loop_
_citation_author_citation_id
_citation_author_name
primary 'Deng, Guochu'
primary 'Yu, Youshuang'
primary 'Cao, Yiming'
primary 'Feng, Zhenjie'
primary 'Ren, Wei'
primary 'Cao, Shixun'
primary 'Studer, Andrew J.'
primary 'Hester, James R.'
primary 'Kareri, Yousef'
primary 'Ulrich, Clemens'
primary 'McIntyre, Garry J.'
_cell_length_a 5.2992
_cell_length_b 5.2992
_cell_length_c 14.2555
_cell_angle_alpha 90.
_cell_angle_beta 90.
_cell_angle_gamma 120.
_cell_volume 346.68
_cell_formula_units_Z 2
_space_group_name_H-M_alt 'P -3 c 1'
_space_group_IT_number 165
loop_
_space_group_symop_id
_space_group_symop_operation_xyz
1 'x-y, -y, -z+1/2'
2 '-x, -x+y, -z+1/2'
3 'y, x, -z+1/2'
4 'x-y, x, -z'
5 'y, -x+y, -z'
6 '-x, -y, -z'
7 '-x+y, y, z+1/2'
8 'x, x-y, z+1/2'
9 '-y, -x, z+1/2'
10 '-x+y, -x, z'
11 '-y, x-y, z'
12 'x, y, z'
loop_
_atom_type_symbol
_atom_type_oxidation_number
Nb5+ 5
Mn2+ 2
O2- -2
loop_
_atom_site_label
_atom_site_type_symbol
_atom_site_symmetry_multiplicity
_atom_site_Wyckoff_symbol
_atom_site_fract_x
_atom_site_fract_y
_atom_site_fract_z
_atom_site_B_iso_or_equiv
_atom_site_occupancy
Nb1 Nb5+ 4 c 0. 0. 0.1431 . 1.
Mn1 Mn2+ 4 d 0.33333 0.66667 0.0169 . 1.
Mn2 Mn2+ 4 d 0.33333 0.66667 0.3009 . 1.
O1 O2- 6 f 0.2776 0. 0.25 . 1.
O2 O2- 12 g 0.337 0.3091 0.0869 . 1.
#End of TTdata_19214-ICSD