
#(C) 2022 by FIZ Karlsruhe - Leibniz Institute for Information Infrastructure.  All rights reserved.
data_258307-ICSD
_database_code_ICSD 258307
_audit_creation_date 2018-02-01
_chemical_name_common 'Vanadium oxide - gamma phase'
_chemical_formula_structural 'V2 O5'
_chemical_formula_sum 'O5 V2'
_exptl_crystal_density_diffrn 3.38
_citation_title

;
Crystal structure determination of a new sodium vanadium bronze
electrochemically formed
;
loop_
_citation_id
_citation_journal_full
_citation_year
_citation_journal_volume
_citation_page_first
_citation_page_last
_citation_journal_id_ASTM
primary 'Journal of Solid State Chemistry' 2017 254 62 68 JSSCBI
loop_
_citation_author_citation_id
_citation_author_name
primary 'Safrany Renard, Marianne'
primary 'Emery, Nicolas'
primary 'Roginskii, Evgenii M.'
primary 'Baddour-Hadjean, Rita'
primary 'Pereira-Ramos, Jean-Pierre'
_cell_length_a 9.9439
_cell_length_b 3.5835
_cell_length_c 10.0376
_cell_angle_alpha 90.
_cell_angle_beta 90.
_cell_angle_gamma 90.
_cell_volume 357.68
_cell_formula_units_Z 4
_space_group_name_H-M_alt 'P n m a'
_space_group_IT_number 62
loop_
_space_group_symop_id
_space_group_symop_operation_xyz
1 'x+1/2, y, -z+1/2'
2 'x, -y+1/2, z'
3 '-x+1/2, y+1/2, z+1/2'
4 '-x, -y, -z'
5 '-x+1/2, -y, z+1/2'
6 '-x, y+1/2, -z'
7 'x+1/2, -y+1/2, -z+1/2'
8 'x, y, z'
loop_
_atom_type_symbol
_atom_type_oxidation_number
V5+ 5
O2- -2
loop_
_atom_site_label
_atom_site_type_symbol
_atom_site_symmetry_multiplicity
_atom_site_Wyckoff_symbol
_atom_site_fract_x
_atom_site_fract_y
_atom_site_fract_z
_atom_site_U_iso_or_equiv
_atom_site_occupancy
V1 V5+ 4 c 0.4289 0.25 0.1016 0.0059 1.
V2 V5+ 4 c 0.125 0.25 0.0149 0.0059 1.
O1 O2- 4 c 0.0023 0.25 0.2596 0.0281 1.
O2 O2- 4 c 0.2094 0.25 0.8829 0.0281 1.
O3 O2- 4 c 0.4233 0.25 0.5354 0.0281 1.
O4 O2- 4 c 0.0678 0.25 0.5395 0.0281 1.
O5 O2- 4 c 0.27538 0.25 0.1428 0.0281 1.
#End of TTdata_258307-ICSD