
#(C) 2022 by FIZ Karlsruhe - Leibniz Institute for Information Infrastructure.  All rights reserved.
data_15899-ICSD
_database_code_ICSD 15899
_audit_creation_date 1986-09-25
_audit_update_record 2012-02-01
_chemical_name_common 'Vanadium oxide (3/5)'
_chemical_formula_structural 'V3 O5'
_chemical_formula_sum 'O5 V3'
_chemical_name_structure_type V3O5(HT)
_exptl_crystal_density_diffrn 4.75
_citation_title 'Note on the crystal structure of trivanadium pentoxide'
loop_
_citation_id
_citation_journal_full
_citation_year
_citation_journal_volume
_citation_page_first
_citation_page_last
_citation_journal_id_ASTM
primary 'Acta Chemica Scandinavica ' 1959 13 603 603 ACSAA4
loop_
_citation_author_citation_id
_citation_author_name
primary 'Asbrink, S.'
primary 'Friberg, S.'
primary 'Magneli, A.'
primary 'Andersson, G.'
_cell_length_a 9.98
_cell_length_b 5.03
_cell_length_c 6.9747
_cell_angle_alpha 90.
_cell_angle_beta 111.677
_cell_angle_gamma 90.
_cell_volume 325.37
_cell_formula_units_Z 4
_space_group_name_H-M_alt 'C 1 c 1'
_space_group_IT_number 9
loop_
_space_group_symop_id
_space_group_symop_operation_xyz
1 'x, -y, z+1/2'
2 'x, y, z'
3 'x+1/2, -y+1/2, z+1/2'
4 'x+1/2, y+1/2, z'
loop_
_atom_type_symbol
_atom_type_oxidation_number
V3+ 3.33
O2- -2
loop_
_atom_site_label
_atom_site_type_symbol
_atom_site_symmetry_multiplicity
_atom_site_Wyckoff_symbol
_atom_site_fract_x
_atom_site_fract_y
_atom_site_fract_z
_atom_site_B_iso_or_equiv
_atom_site_occupancy
V1 V3+ 4 a 0.126 0.5 0.214 . 1.
V2 V3+ 4 a 0.374 0. 0.286 . 1.
V3 V3+ 4 a 0. 0. 0. . 1.
O1 O2- 4 a 0.308 0.35 0.352 . 1.
O2 O2- 4 a 0.422 0.15 0.061 . 1.
O3 O2- 4 a 0.578 0.15 0.439 . 1.
O4 O2- 4 a 0.192 0.15 0.648 . 1.
O5 O2- 4 a 0. 0.15 0.25 . 1.
#End of TTdata_15899-ICSD