
#(C) 2022 by FIZ Karlsruhe - Leibniz Institute for Information Infrastructure.  All rights reserved.
data_47269-ICSD
_database_code_ICSD 47269
_audit_creation_date 2022-08-01
_chemical_name_common 'Î±-Hexavanadium tridecaoxide'
_chemical_formula_structural 'V6 O13'
_chemical_formula_sum 'O13 V6'
_chemical_name_structure_type V6O13
_exptl_crystal_density_diffrn 4.09
_diffrn_ambient_temperature 293.
_diffrn_ambient_pressure 7200000.
_citation_title

;
Stability of Wadsley-type vanadium oxides V$_2$O$_5$ and V$_6$O$_{13}$ at high
pressures
;
loop_
_citation_id
_citation_journal_full
_citation_year
_citation_journal_volume
_citation_page_first
_citation_page_last
_citation_journal_id_ASTM
primary 'Journal of Alloys and Compounds' 2022 911 '' '' JALCEU
loop_
_citation_author_citation_id
_citation_author_name
primary 'Hakala, B. Viliam'
primary 'Manousou, Dimitra K.'
primary 'Glazyrin, Konstantin'
primary 'Crichton, Wilson A.'
primary 'Friese, Karen'
primary 'Grzechnik, Andrzej'
_cell_length_a 11.726
_cell_length_b 3.644
_cell_length_c 9.935
_cell_angle_alpha 90.
_cell_angle_beta 100.94
_cell_angle_gamma 90.
_cell_volume 416.8
_cell_formula_units_Z 2
_space_group_name_H-M_alt 'C 1 2/m 1'
_space_group_IT_number 12
loop_
_space_group_symop_id
_space_group_symop_operation_xyz
1 '-x, y, -z'
2 '-x, -y, -z'
3 'x, -y, z'
4 'x, y, z'
5 '-x+1/2, y+1/2, -z'
6 '-x+1/2, -y+1/2, -z'
7 'x+1/2, -y+1/2, z'
8 'x+1/2, y+1/2, z'
loop_
_atom_type_symbol
_atom_type_oxidation_number
V4+ 4.333
O2- -2
loop_
_atom_site_label
_atom_site_type_symbol
_atom_site_symmetry_multiplicity
_atom_site_Wyckoff_symbol
_atom_site_fract_x
_atom_site_fract_y
_atom_site_fract_z
_atom_site_U_iso_or_equiv
_atom_site_occupancy
V1 V4+ 4 i 0.3511 0. 0.0007 0.0116 1.
V2 V4+ 4 i 0.2868 0. 0.6349 0.0104 1.
V3 V4+ 4 i 0.4107 0. 0.3644 0.0109 1.
O1 O2- 4 i 0.679 0. 0.1989 0.016 1.
O2 O2- 4 i 0.385 0. 0.1963 0.014 1.
O3 O2- 4 i 0.558 0. 0.4078 0.013 1.
O4 O2- 4 i 0.245 0. 0.4075 0.014 1.
O5 O2- 4 i 0.12 0. 0.6117 0.012 1.
O6 O2- 4 i 0.179 0. 0.0017 0.015 1.
O7 O2- 2 b 0. 0.5 0. 0.018 1.
#End of TTdata_47269-ICSD