
#(C) 2022 by FIZ Karlsruhe - Leibniz Institute for Information Infrastructure.  All rights reserved.
data_27155-ICSD
_database_code_ICSD 27155
_audit_creation_date 1980-01-01
_audit_update_record 2006-04-01
_chemical_name_common 'Niobium(IV) oxide'
_chemical_formula_structural 'Nb O2'
_chemical_formula_sum 'Nb1 O2'
_chemical_name_structure_type NbO2
_exptl_crystal_density_diffrn 5.91
_citation_title 'The crystal structure of niobium dioxide'
loop_
_citation_id
_citation_journal_full
_citation_year
_citation_journal_volume
_citation_page_first
_citation_page_last
_citation_journal_id_ASTM
primary 'Arkiv foer Kemi' 1962 19 435 446 ARKEAD
loop_
_citation_author_citation_id
_citation_author_name
primary 'Marinder, B.O.'
_cell_length_a 13.7
_cell_length_b 13.7
_cell_length_c 5.987
_cell_angle_alpha 90.
_cell_angle_beta 90.
_cell_angle_gamma 90.
_cell_volume 1123.7
_cell_formula_units_Z 32
_space_group_name_H-M_alt 'I 41/a Z'
_space_group_IT_number 88
loop_
_space_group_symop_id
_space_group_symop_operation_xyz
1 '-y+3/4, x+3/4, -z+3/4'
2 'y+1/4, -x+3/4, -z+3/4'
3 'x, y+1/2, -z'
4 '-x, -y, -z'
5 'y+1/4, -x+1/4, z+1/4'
6 '-y+3/4, x+1/4, z+1/4'
7 '-x, -y+1/2, z'
8 'x, y, z'
9 '-y+1/4, x+1/4, -z+1/4'
10 'y+3/4, -x+1/4, -z+1/4'
11 'x+1/2, y, -z+1/2'
12 '-x+1/2, -y+1/2, -z+1/2'
13 'y+3/4, -x+3/4, z+3/4'
14 '-y+1/4, x+3/4, z+3/4'
15 '-x+1/2, -y, z+1/2'
16 'x+1/2, y+1/2, z+1/2'
loop_
_atom_type_symbol
_atom_type_oxidation_number
Nb4+ 4
O2- -2
loop_
_atom_site_label
_atom_site_type_symbol
_atom_site_symmetry_multiplicity
_atom_site_Wyckoff_symbol
_atom_site_fract_x
_atom_site_fract_y
_atom_site_fract_z
_atom_site_B_iso_or_equiv
_atom_site_occupancy
Nb1 Nb4+ 16 f 0.125 0.132 0.267 . 1.
Nb2 Nb4+ 16 f 0.133 0.375 0.516 . 1.
O1 O2- 16 f 0.014 0.13 0.501 . 1.
O2 O2- 16 f 0.029 0.125 0.001 . 1.
O3 O2- 16 f 0.22 0.126 0.007 . 1.
O4 O2- 16 f 0.266 0.382 0.003 . 1.
#End of TTdata_27155-ICSD