
#(C) 2022 by FIZ Karlsruhe - Leibniz Institute for Information Infrastructure.  All rights reserved.
data_202550-ICSD
_database_code_ICSD 202550
_audit_creation_date 1988-12-19
_audit_update_record 2005-10-01
_chemical_name_common 'Tetramanganese tri-mue-oxo-hexaoxodiniobate - HT'
_chemical_formula_structural 'Mn4 (Nb2 O9)'
_chemical_formula_sum 'Mn4 Nb2 O9'
_chemical_name_structure_type Co4(Nb2O9)
_exptl_crystal_density_diffrn 5.18
_citation_title
'Synthese und Kristallstruktur von Mn4 Nb2 O9 und Mn2 Zn2 Nb2 O9'
loop_
_citation_id
_citation_journal_full
_citation_year
_citation_journal_volume
_citation_page_first
_citation_page_last
_citation_journal_id_ASTM
primary 'Journal of the Less-Common Metals' 1988 138 79 86 JCOMAH
loop_
_citation_author_citation_id
_citation_author_name
primary 'Rohweder, U.'
primary 'Mueller Buschbaum, H.'
_cell_length_a 5.3293
_cell_length_b 5.3293
_cell_length_c 14.3154
_cell_angle_alpha 90.
_cell_angle_beta 90.
_cell_angle_gamma 120.
_cell_volume 352.11
_cell_formula_units_Z 2
_space_group_name_H-M_alt 'P -3 c 1'
_space_group_IT_number 165
loop_
_space_group_symop_id
_space_group_symop_operation_xyz
1 'x-y, -y, -z+1/2'
2 '-x, -x+y, -z+1/2'
3 'y, x, -z+1/2'
4 'x-y, x, -z'
5 'y, -x+y, -z'
6 '-x, -y, -z'
7 '-x+y, y, z+1/2'
8 'x, x-y, z+1/2'
9 '-y, -x, z+1/2'
10 '-x+y, -x, z'
11 '-y, x-y, z'
12 'x, y, z'
loop_
_atom_type_symbol
_atom_type_oxidation_number
Nb5+ 5
Mn2+ 2
O2- -2
loop_
_atom_site_label
_atom_site_type_symbol
_atom_site_symmetry_multiplicity
_atom_site_Wyckoff_symbol
_atom_site_fract_x
_atom_site_fract_y
_atom_site_fract_z
_atom_site_B_iso_or_equiv
_atom_site_occupancy
Nb1 Nb5+ 4 c 0. 0. 0.1426 0.28 1.
Mn1 Mn2+ 4 d 0.33333 0.66667 0.019 0.66 1.
Mn2 Mn2+ 4 d 0.33333 0.66667 0.3034 0.58 1.
O1 O2- 12 g 0.336 0.308 0.086 0.49 1.
O2 O2- 6 f 0.276 0. 0.25 0.34 1.
#End of TTdata_202550-ICSD