
#(C) 2022 by FIZ Karlsruhe - Leibniz Institute for Information Infrastructure.  All rights reserved.
data_81993-ICSD
_database_code_ICSD 81993
_audit_creation_date 1999-11-30
_audit_update_record 2005-10-01
_chemical_name_common 'Dimanganese divanadate(V) - alpha'
_chemical_formula_structural 'Mn2 (V2 O7)'
_chemical_formula_sum 'Mn2 O7 V2'
_chemical_name_structure_type K2Cr2O7(H_type)
_exptl_crystal_density_diffrn 3.8
_citation_title

;
Synthesis, structures, magnetic properties, and phase transition of
manganese(II) divanadate: Mn2 V2 O7
;
loop_
_citation_id
_citation_journal_full
_citation_year
_citation_journal_volume
_citation_page_first
_citation_page_last
_citation_journal_id_ASTM
primary 'Journal of Solid State Chemistry' 1996 121 214 224 JSSCBI
loop_
_citation_author_citation_id
_citation_author_name
primary 'Liao, J.-H.'
primary 'Leroux, F.'
primary 'Payen, C.'
primary 'Guyomard, D.'
primary 'Piffard, Y.'
_cell_length_a 6.868
_cell_length_b 7.976
_cell_length_c 10.927
_cell_angle_alpha 87.81
_cell_angle_beta 72.14
_cell_angle_gamma 83.08
_cell_volume 565.58
_cell_formula_units_Z 4
_space_group_name_H-M_alt 'P -1'
_space_group_IT_number 2
loop_
_space_group_symop_id
_space_group_symop_operation_xyz
1 '-x, -y, -z'
2 'x, y, z'
loop_
_atom_type_symbol
_atom_type_oxidation_number
Mn2+ 2
V5+ 5
O2- -2
loop_
_atom_site_label
_atom_site_type_symbol
_atom_site_symmetry_multiplicity
_atom_site_Wyckoff_symbol
_atom_site_fract_x
_atom_site_fract_y
_atom_site_fract_z
_atom_site_B_iso_or_equiv
_atom_site_occupancy
Mn1 Mn2+ 2 i 0.6034 0.1137 0.5838 . 1.
Mn2 Mn2+ 2 i 0.0986 0.5943 0.594 . 1.
Mn3 Mn2+ 2 i 0.083 0.5966 0.098 . 1.
Mn4 Mn2+ 2 i 0.5799 0.1428 0.0792 . 1.
V1 V5+ 2 i 0.0657 0.1461 0.1298 . 1.
V2 V5+ 2 i 0.0673 0.1684 0.6331 . 1.
V3 V5+ 2 i 0.4256 0.2868 0.3592 . 1.
V4 V5+ 2 i 0.5538 0.5954 0.1498 . 1.
O1 O2- 2 i 0.9004 0.1778 0.0432 . 1.
O2 O2- 2 i 0.3112 0.0845 0.0359 . 1.
O3 O2- 2 i 0.0532 0.321 0.2135 . 1.
O4 O2- 2 i 0.0094 0.0189 0.7533 . 1.
O5 O2- 2 i 0.0964 0.8177 0.4566 . 1.
O6 O2- 2 i 0.3174 0.1101 0.5387 . 1.
O7 O2- 2 i 0.0468 0.3559 0.7052 . 1.
O8 O2- 2 i 0.4372 0.095 0.2876 . 1.
O9 O2- 2 i 0.2012 0.4112 0.4353 . 1.
O10 O2- 2 i 0.6194 0.3075 0.4196 . 1.
O11 O2- 2 i 0.503 0.3851 0.2023 . 1.
O12 O2- 2 i 0.4746 0.2908 0.7238 . 1.
O13 O2- 2 i 0.8059 0.5799 0.0546 . 1.
O14 O2- 2 i 0.3773 0.6716 0.0731 . 1.
loop_
_atom_site_aniso_label
_atom_site_aniso_type_symbol
_atom_site_aniso_U_11
_atom_site_aniso_U_22
_atom_site_aniso_U_33
_atom_site_aniso_U_12
_atom_site_aniso_U_13
_atom_site_aniso_U_23
Mn1 Mn2+ 0.009 0.007 0.009 -0.001 -0.003 -0.001
Mn2 Mn2+ 0.009 0.009 0.01 -0.002 -0.003 -0.001
Mn3 Mn2+ 0.007 0.02 0.009 -0.002 -0.001 -0.006
Mn4 Mn2+ 0.009 0.01 0.01 -0.002 -0.004 -0.002
V1 V5+ 0.006 0.008 0.008 -0.001 -0.002 0.
V2 V5+ 0.008 0.008 0.007 0. -0.001 -0.001
V3 V5+ 0.007 0.009 0.008 0. -0.003 -0.001
V4 V5+ 0.007 0.009 0.009 0. -0.003 -0.001
O1 O2- 0.013 0.017 0.013 -0.004 -0.009 0.002
O2 O2- 0.008 0.01 0.02 0.002 -0.004 -0.003
O3 O2- 0.013 0.017 0.012 0. 0.001 -0.009
O4 O2- 0.018 0.023 0.019 -0.004 -0.003 0.009
O5 O2- 0.009 0.009 0.018 -0.003 -0.006 0.002
O6 O2- 0.005 0.01 0.015 0. -0.003 -0.003
O7 O2- 0.016 0.007 0.007 0.002 -0.002 -0.003
O8 O2- 0.016 0.008 0.011 -0.002 -0.003 -0.003
O9 O2- 0.007 0.009 0.008 0.002 -0.002 0.
O10 O2- 0.011 0.016 0.017 -0.001 -0.01 0.002
O11 O2- 0.019 0.011 0.01 0. -0.001 0.003
O12 O2- 0.02 0.023 0.019 0.001 -0.008 -0.012
O13 O2- 0.007 0.013 0.011 0. -0.001 -0.002
O14 O2- 0.008 0.014 0.016 0. -0.005 0.004
#End of TTdata_81993-ICSD