
#(C) 2022 by FIZ Karlsruhe - Leibniz Institute for Information Infrastructure.  All rights reserved.
data_8969-ICSD
_database_code_ICSD 8969
_audit_creation_date 2020-08-01
_chemical_name_common 'Vanadium pentaoxoniobate'
_chemical_formula_structural 'V Nb O5'
_chemical_formula_sum 'Nb1 O5 V1'
_exptl_crystal_density_diffrn 3.27
_citation_title

;
A mechanochemical route for the synthesis of VNbO$_5$ and its structural
re-investigation using structure solution from powder diffraction data
;
loop_
_citation_id
_citation_journal_full
_citation_year
_citation_journal_volume
_citation_page_first
_citation_page_last
_citation_journal_id_ASTM
primary 'Dalton Transactions' 2019 48 10986 10995 DTARAF
loop_
_citation_author_citation_id
_citation_author_name
primary 'Valentoni, Antonio'
primary 'Barra, Paolo'
primary 'Senes, Nina'
primary 'Mulas, Gabriele'
primary 'Pistidda, Claudio'
primary 'Bednarcik, Jozef'
primary 'Torre, Francesco'
primary 'Garroni, Sebastiano'
_cell_length_a 5.523
_cell_length_b 6.929
_cell_length_c 11.869
_cell_angle_alpha 90.
_cell_angle_beta 90.
_cell_angle_gamma 90.
_cell_volume 454.21
_cell_formula_units_Z 4
_space_group_name_H-M_alt 'P 21 21 21'
_space_group_IT_number 19
loop_
_space_group_symop_id
_space_group_symop_operation_xyz
1 '-x, y+1/2, -z+1/2'
2 'x+1/2, -y+1/2, -z'
3 '-x+1/2, -y, z+1/2'
4 'x, y, z'
loop_
_atom_type_symbol
_atom_type_oxidation_number
Nb5+ 5
V5+ 5
O2- -2
loop_
_atom_site_label
_atom_site_type_symbol
_atom_site_symmetry_multiplicity
_atom_site_Wyckoff_symbol
_atom_site_fract_x
_atom_site_fract_y
_atom_site_fract_z
_atom_site_B_iso_or_equiv
_atom_site_occupancy
Nb1 Nb5+ 4 a 0.2717 0.4077 0.4428 . 1.
V1 V5+ 4 a 0.241 0.2233 0.1559 . 1.
O1 O2- 4 a 0.0004 0.2258 0.4482 . 1.
O2 O2- 4 a 0.2569 0.2914 0.2816 . 1.
O3 O2- 4 a 0.2355 0.426 0.0885 . 1.
O4 O2- 4 a 0.0234 0.1144 0.1213 . 1.
O5 O2- 4 a 0.4798 0.0968 0.1383 . 1.
#End of TTdata_8969-ICSD