
#(C) 2022 by FIZ Karlsruhe - Leibniz Institute for Information Infrastructure.  All rights reserved.
data_424885-ICSD
_database_code_ICSD 424885
_audit_creation_date 2013-08-01
_chemical_name_common 'Vanadium oxide (8/15)'
_chemical_formula_structural 'V8 O15'
_chemical_formula_sum 'O15 V8'
_exptl_crystal_density_diffrn 4.71
_diffrn_ambient_temperature 100.
_citation_title

;
Crystal structures of the high temperature forms of V8 O15 and V9 O17 and
structural trends in the VnO2n-1 Magneli series
;
loop_
_citation_id
_citation_journal_full
_citation_year
_citation_journal_volume
_citation_page_first
_citation_page_last
_citation_journal_id_ASTM
primary 'Journal of Solid State Chemistry' 2013 198 10 17 JSSCBI
loop_
_citation_author_citation_id
_citation_author_name
primary 'Allred, J.M.'
primary 'Cava, R.J.'
_cell_length_a 5.4243
_cell_length_b 7.005
_cell_length_c 13.113
_cell_angle_alpha 100.135
_cell_angle_beta 95.864
_cell_angle_gamma 108.961
_cell_volume 457.02
_cell_formula_units_Z 2
_space_group_name_H-M_alt 'P -1'
_space_group_IT_number 2
loop_
_space_group_symop_id
_space_group_symop_operation_xyz
1 '-x, -y, -z'
2 'x, y, z'
loop_
_atom_type_symbol
_atom_type_oxidation_number
O2- -2
V3+ 3.75
loop_
_atom_site_label
_atom_site_type_symbol
_atom_site_symmetry_multiplicity
_atom_site_Wyckoff_symbol
_atom_site_fract_x
_atom_site_fract_y
_atom_site_fract_z
_atom_site_U_iso_or_equiv
_atom_site_occupancy
O1 O2- 2 i 0.2394 0.6359 0.61016 0.0047 1.
O2 O2- 2 i 0.098 0.5676 0.25676 0.005 1.
O3 O2- 2 i 0.408 0.7622 0.10799 0.0051 1.
O4 O2- 2 i 0.3103 0.0586 0.0231 0.0047 1.
O5 O2- 2 i 0.4245 0.1569 0.52399 0.0047 1.
O6 O2- 2 i 0.2567 0.2582 0.21719 0.0046 1.
O7 O2- 2 i 0.5848 0.4466 0.07987 0.0043 1.
O8 O2- 2 i 0.0397 0.7755 0.44839 0.0048 1.
O9 O2- 2 i 0.6261 0.0229 0.68605 0.0051 1.
O10 O2- 2 i 0.7205 0.1791 0.18076 0.0047 1.
O11 O2- 2 i 0.0653 0.3518 0.04843 0.0051 1.
O12 O2- 2 i 0.297 0.4301 0.42074 0.0047 1.
O13 O2- 2 i 0.3588 0.3588 0.71184 0.005 1.
O14 O2- 2 i 0.0249 0.1537 0.84347 0.0048 1.
O15 O2- 2 i 0.9155 0.0484 0.34456 0.0047 1.
V1 V3+ 2 i 0.71864 0.72427 0.05278 0.00368 1.
V2 V3+ 2 i 0.72819 0.22385 0.04461 0.00367 1.
V3 V3+ 2 i 0.35915 0.5236 0.182 0.00388 1.
V4 V3+ 2 i 0.35629 0.03123 0.17826 0.00375 1.
V5 V3+ 2 i 0.00304 0.30694 0.30644 0.00378 1.
V6 V3+ 2 i 0.01183 0.8064 0.31469 0.00427 1.
V7 V3+ 2 i 0.66404 0.09964 0.43177 0.00402 1.
V8 V3+ 2 i 0.34023 0.40037 0.56207 0.00419 1.
loop_
_atom_site_aniso_label
_atom_site_aniso_type_symbol
_atom_site_aniso_U_11
_atom_site_aniso_U_22
_atom_site_aniso_U_33
_atom_site_aniso_U_12
_atom_site_aniso_U_13
_atom_site_aniso_U_23
V1 V3+ 0.00351 0.00342 0.00376 0.0011 -0.00007 0.00055
V2 V3+ 0.00328 0.00338 0.00417 0.00126 0.00025 0.00041
V3 V3+ 0.0048 0.00377 0.00353 0.00203 0.00098 0.00081
V4 V3+ 0.00399 0.00338 0.00399 0.00155 0.00058 0.00066
V5 V3+ 0.00399 0.00326 0.00422 0.00148 0.00077 0.0007
V6 V3+ 0.00447 0.00378 0.0047 0.00177 0.00083 0.00064
V7 V3+ 0.00421 0.00353 0.00456 0.00154 0.00118 0.00088
V8 V3+ 0.00425 0.00386 0.00438 0.00181 0.00014 0.0003
#End of TTdata_424885-ICSD