
#(C) 2022 by FIZ Karlsruhe - Leibniz Institute for Information Infrastructure.  All rights reserved.
data_15856-ICSD
_database_code_ICSD 15856
_audit_creation_date 1980-01-01
_audit_update_record 1985-04-25
_chemical_name_common 'Manganese diniobium oxide'
_chemical_formula_structural 'Mn Nb2 O6'
_chemical_formula_sum 'Mn1 Nb2 O6'
_chemical_name_structure_type Columbite#Nb2FeO6
_exptl_crystal_density_diffrn 5.29
_citation_title 'Kristallstrukturverfeinerung von Wolframiten und Columbiten'
loop_
_citation_id
_citation_journal_full
_citation_year
_citation_journal_volume
_citation_page_first
_citation_page_last
_citation_journal_id_ASTM
primary 'Zeitschrift fuer Kristallographie' 1976 144 238 258 ZEKRDZ
loop_
_citation_author_citation_id
_citation_author_name
primary 'Weitzel, H.'
_cell_length_a 14.4236
_cell_length_b 5.7609
_cell_length_c 5.0839
_cell_angle_alpha 90.
_cell_angle_beta 90.
_cell_angle_gamma 90.
_cell_volume 422.44
_cell_formula_units_Z 4
_space_group_name_H-M_alt 'P b c n'
_space_group_IT_number 60
loop_
_space_group_symop_id
_space_group_symop_operation_xyz
1 'x, -y, z+1/2'
2 '-x+1/2, y+1/2, z'
3 'x+1/2, y+1/2, -z+1/2'
4 '-x, -y, -z'
5 '-x, y, -z+1/2'
6 'x+1/2, -y+1/2, -z'
7 '-x+1/2, -y+1/2, z+1/2'
8 'x, y, z'
loop_
_atom_type_symbol
_atom_type_oxidation_number
Mn2+ 2
Nb5+ 5
O2- -2
loop_
_atom_site_label
_atom_site_type_symbol
_atom_site_symmetry_multiplicity
_atom_site_Wyckoff_symbol
_atom_site_fract_x
_atom_site_fract_y
_atom_site_fract_z
_atom_site_B_iso_or_equiv
_atom_site_occupancy
Mn1 Mn2+ 4 c 0. 0.3097 0.25 0.79 1.
Nb1 Nb5+ 8 d 0.3384 0.3206 0.2522 0.86 1.
O1 O2- 8 d 0.0973 0.1024 0.0637 1. 1.
O2 O2- 8 d 0.4154 0.1178 0.0986 0.51 1.
O3 O2- 8 d 0.2445 0.1248 0.4181 0.75 1.
#End of TTdata_15856-ICSD