
#(C) 2022 by FIZ Karlsruhe - Leibniz Institute for Information Infrastructure.  All rights reserved.
data_196-ICSD
_database_code_ICSD 196
_audit_creation_date 1980-01-01
_audit_update_record 2018-08-01
_chemical_name_common 'Vanadium oxide (6/11)'
_chemical_formula_structural 'V6 O11'
_chemical_formula_sum 'O11 V6'
_exptl_crystal_density_diffrn 4.7
_citation_title 'Crystal structures of VnO2n-1(2<=n<=7)'
loop_
_citation_id
_citation_journal_full
_citation_year
_citation_journal_volume
_citation_page_first
_citation_page_last
_citation_journal_id_ASTM
primary 'Journal of Solid State Chemistry' 1976 17 407 424 JSSCBI
loop_
_citation_author_citation_id
_citation_author_name
primary 'Horiuchi, Hiroyuki'
primary 'Morimoto, Nobuo'
primary 'Tokonami, Masayasu'
_cell_length_a 5.448
_cell_length_b 6.998
_cell_length_c 9.6105
_cell_angle_alpha 89.946
_cell_angle_beta 79.428
_cell_angle_gamma 71.1
_cell_volume 340.09
_cell_formula_units_Z 2
_space_group_name_H-M_alt 'P -1'
_space_group_IT_number 2
loop_
_space_group_symop_id
_space_group_symop_operation_xyz
1 '-x, -y, -z'
2 'x, y, z'
loop_
_atom_type_symbol
_atom_type_oxidation_number
V3+ 3.667
O2- -2
loop_
_atom_site_label
_atom_site_type_symbol
_atom_site_symmetry_multiplicity
_atom_site_Wyckoff_symbol
_atom_site_fract_x
_atom_site_fract_y
_atom_site_fract_z
_atom_site_B_iso_or_equiv
_atom_site_occupancy
V1 V3+ 2 i 0.68115 0.30357 0.06207 0.23 1.
V2 V3+ 2 i 0.32468 0.19511 0.93266 0.19 1.
V3 V3+ 2 i 0.19123 0.57266 0.24248 0.31 1.
V4 V3+ 2 i 0.18474 0.08071 0.24331 0.29 1.
V5 V3+ 2 i 0.27315 0.13679 0.58273 0.4 1.
V6 V3+ 2 i 0.2727 0.63824 0.58468 0.35 1.
O1 O2- 2 i 0.2923 0.4511 0.0328 0.29 1.
O2 O2- 2 i 0.02039 0.17628 0.06693 0.73 1.
O3 O2- 2 i 0.5109 0.0976 0.1088 0.51 1.
O4 O2- 2 i 0.31011 0.79812 0.14527 0.38 1.
O5 O2- 2 i 0.16723 0.25896 0.78851 0.42 1.
O6 O2- 2 i 0.555 0.4226 0.2471 0.52 1.
O7 O2- 2 i 0.05975 0.3641 0.29735 0.35 1.
O8 O2- 2 i 0.8577 0.0144 0.3482 0.53 1.
O9 O2- 2 i 0.37337 0.01894 0.38849 0.48 1.
O10 O2- 2 i 0.09161 0.70352 0.42507 0.35 1.
O11 O2- 2 i 0.39646 0.35642 0.52892 0.62 1.
#End of TTdata_196-ICSD