
#(C) 2022 by FIZ Karlsruhe - Leibniz Institute for Information Infrastructure.  All rights reserved.
data_253820-ICSD
_database_code_ICSD 253820
_audit_creation_date 2018-02-01
_chemical_name_common 'Manganese(II) vanado-diniobate(V)'
_chemical_formula_structural 'Mn (Nb1.8 V0.2) O6'
_chemical_formula_sum 'Mn1 Nb1.8 O6 V0.2'
_chemical_name_structure_type Columbite#Nb2FeO6
_exptl_crystal_density_diffrn 5.19
_diffrn_ambient_temperature 293.
_citation_title 'Low dimensional magnetism in MnNb2-xVxO6'
loop_
_citation_id
_citation_journal_full
_citation_year
_citation_journal_volume
_citation_page_first
_citation_page_last
_citation_journal_id_ASTM
primary 'Materials Research Bulletin' 2016 74 169 176 MRBUAC
loop_
_citation_author_citation_id
_citation_author_name
primary 'Hneda, M.L.'
primary 'da Cunha, J.B.M.'
primary 'Gusmao, M.A.C.'
primary 'Isnard, O.'
_cell_length_a 14.409
_cell_length_b 5.7573
_cell_length_c 5.0681
_cell_angle_alpha 90.
_cell_angle_beta 90.
_cell_angle_gamma 90.
_cell_volume 420.43
_cell_formula_units_Z 4
_space_group_name_H-M_alt 'P b c n'
_space_group_IT_number 60
loop_
_space_group_symop_id
_space_group_symop_operation_xyz
1 'x, -y, z+1/2'
2 '-x+1/2, y+1/2, z'
3 'x+1/2, y+1/2, -z+1/2'
4 '-x, -y, -z'
5 '-x, y, -z+1/2'
6 'x+1/2, -y+1/2, -z'
7 '-x+1/2, -y+1/2, z+1/2'
8 'x, y, z'
loop_
_atom_type_symbol
_atom_type_oxidation_number
Mn2+ 2
Nb5+ 5
V5+ 5
O2- -2
loop_
_atom_site_label
_atom_site_type_symbol
_atom_site_symmetry_multiplicity
_atom_site_Wyckoff_symbol
_atom_site_fract_x
_atom_site_fract_y
_atom_site_fract_z
_atom_site_B_iso_or_equiv
_atom_site_occupancy
Mn1 Mn2+ 4 c 0. 0.322 0.25 . 1.
Nb1 Nb5+ 8 d 0.337 0.318 0.243 . 0.9
V2 V5+ 8 d 0.337 0.318 0.243 . 0.1
O1 O2- 8 d 0.098 0.086 0.046 . 1.
O2 O2- 8 d 0.417 0.133 0.114 . 1.
O3 O2- 8 d 0.248 0.13 0.411 . 1.
#End of TTdata_253820-ICSD