
#(C) 2022 by FIZ Karlsruhe - Leibniz Institute for Information Infrastructure.  All rights reserved.
data_653926-ICSD
_database_code_ICSD 653926
_audit_creation_date 2008-07-07
_audit_update_record 2017-08-01
_chemical_name_common 'Vanadium oxide'
_chemical_formula_structural 'V2 O5'
_chemical_formula_sum 'O5 V2'
_chemical_name_mineral Shcherbinaite
_exptl_crystal_density_diffrn 3.36
_citation_title
'Vanadium pentoxide - a compound with five-coordinated vanadium atoms'
loop_
_citation_id
_citation_journal_full
_citation_year
_citation_journal_volume
_citation_page_first
_citation_page_last
_citation_journal_id_ASTM
primary 'Acta Chemica Scandinavica ' 1950 4 1119 1130 ACSAA4
loop_
_citation_author_citation_id
_citation_author_name
primary 'Bystroem, Anders'
primary 'Wilhelmi, Karl-Axel'
primary 'Brotzen, Otto'
_cell_length_a 11.519
_cell_length_b 4.373
_cell_length_c 3.564
_cell_angle_alpha 90.
_cell_angle_beta 90.
_cell_angle_gamma 90.
_cell_volume 179.53
_cell_formula_units_Z 2
_space_group_name_H-M_alt 'P m n m S'
_space_group_IT_number 59
loop_
_space_group_symop_id
_space_group_symop_operation_xyz
1 'x+1/2, -y, -z+1/2'
2 'x+1/2, -y, z+1/2'
3 'x, y, -z'
4 '-x, y, z'
5 '-x+1/2, -y, z+1/2'
6 '-x+1/2, -y, -z+1/2'
7 '-x, y, -z'
8 'x, y, z'
loop_
_atom_type_symbol
_atom_type_oxidation_number
O2- -2
V5+ 5
loop_
_atom_site_label
_atom_site_type_symbol
_atom_site_symmetry_multiplicity
_atom_site_Wyckoff_symbol
_atom_site_fract_x
_atom_site_fract_y
_atom_site_fract_z
_atom_site_B_iso_or_equiv
_atom_site_occupancy
O1 O2- 2 a 0. 0. 0. . 1.
O2 O2- 4 e 0.149 0.458 0. . 1.
O3 O2- 4 e 0.32 0. 0. . 1.
V1 V5+ 4 e 0.1486 0.105 0. . 1.
#End of TTdata_653926-ICSD