
#(C) 2022 by FIZ Karlsruhe - Leibniz Institute for Information Infrastructure.  All rights reserved.
data_420781-ICSD
_database_code_ICSD 420781
_audit_creation_date 2011-02-01
_audit_update_record 2012-02-01
_chemical_name_common 'Vanadium niobium oxide (2.38/10.7/32.7)'
_chemical_formula_structural 'V2.38 Nb10.7 O32.7'
_chemical_formula_sum 'Nb10.7 O32.7 V2.38'
_exptl_crystal_density_diffrn 4.46
_diffrn_ambient_temperature 295.
_citation_title

;
V2.38 Nb10.7 O32.7: A V2 O5 - nb2 O5 mixed site tunnel structure related to
the tetragonal tungsten bronze
;
loop_
_citation_id
_citation_journal_full
_citation_year
_citation_journal_volume
_citation_page_first
_citation_page_last
_citation_journal_id_ASTM
primary 'Journal of Solid State Chemistry' 2010 183 1038 1045 JSSCBI
loop_
_citation_author_citation_id
_citation_author_name
primary 'Boerrnert, C.'
primary 'Carrillo Cabrera, W.'
primary 'Simon, P.'
primary 'Langbein, H.'
_cell_length_a 17.3549
_cell_length_b 17.6977
_cell_length_c 3.9705
_cell_angle_alpha 90.
_cell_angle_beta 90.
_cell_angle_gamma 90.
_cell_volume 1219.51
_cell_formula_units_Z 2
_space_group_name_H-M_alt 'C m m m'
_space_group_IT_number 65
loop_
_space_group_symop_id
_space_group_symop_operation_xyz
1 'x, -y, z'
2 '-x, y, z'
3 'x, y, -z'
4 '-x, -y, -z'
5 '-x, y, -z'
6 'x, -y, -z'
7 '-x, -y, z'
8 'x, y, z'
9 'x+1/2, -y+1/2, z'
10 '-x+1/2, y+1/2, z'
11 'x+1/2, y+1/2, -z'
12 '-x+1/2, -y+1/2, -z'
13 '-x+1/2, y+1/2, -z'
14 'x+1/2, -y+1/2, -z'
15 '-x+1/2, -y+1/2, z'
16 'x+1/2, y+1/2, z'
loop_
_atom_type_symbol
_atom_type_oxidation_number
Nb5+ 5
O2- -2
V5+ 5
O2- -2
V5+ 5
loop_
_atom_site_label
_atom_site_type_symbol
_atom_site_symmetry_multiplicity
_atom_site_Wyckoff_symbol
_atom_site_fract_x
_atom_site_fract_y
_atom_site_fract_z
_atom_site_U_iso_or_equiv
_atom_site_occupancy
Nb1 Nb5+ 2 a 0. 0. 0. 0.0281 0.90504
Nb2 Nb5+ 4 i 0. 0.32915 0. 0.0248 0.93483
Nb3 Nb5+ 16 r 0.11383 0.18172 0.0692 0.0164 0.5
Nb4 Nb5+ 8 p 0.31544 0.1098 0. 0.0257 0.97994
O1 O2- 8 q 0.3176 0.1019 0.5 0.0158 1.
O2 O2- 8 q 0.1117 0.1771 0.5 0.0158 1.
O3 O2- 8 p 0.123 0.2914 0. 0.0158 1.
O4 O2- 8 p 0.068 0.4273 0. 0.0158 1.
O5 O2- 8 p 0.2266 0.1661 0. 0.0158 1.
O6 O2- 8 p 0.0792 0.0788 0. 0.0158 1.
O7 O2- 2 d 0. 0. 0.5 0.0158 1.
O8 O2- 4 i 0. 0.2052 0. 0.0158 1.
O9 O2- 4 g 0.2961 0. 0. 0.0158 1.
O10 O2- 2 c 0.5 0. 0.5 0.0158 1.
V1 V5+ 4 l 0. 0.5 0.11 0.0122 0.5
V2 V5+ 4 h 0.2621 0. 0.5 0.0122 0.345
O11 O2- 4 h 0.1695 0. 0.5 0.0158 0.345
O12 O2- 4 j 0. 0.3235 0.5 0.0158 1.
V3 V5+ 8 q 0.1039 0.0705 0.5 0.0122 0.1725
#End of TTdata_420781-ICSD