
#(C) 2022 by FIZ Karlsruhe - Leibniz Institute for Information Infrastructure.  All rights reserved.
data_200243-ICSD
_database_code_ICSD 200243
_audit_creation_date 1980-01-01
_audit_update_record 2012-02-01
_chemical_name_common 'Vanadium oxide (14/6)'
_chemical_formula_structural 'V14 O6'
_chemical_formula_sum 'O6 V14'
_chemical_name_structure_type V7O3
_exptl_crystal_density_diffrn 6.21
_citation_title 'Structure of the suboxide V2 O in the system vanadium oxygen'
loop_
_citation_id
_citation_journal_full
_citation_year
_citation_journal_volume
_citation_page_first
_citation_page_last
_citation_journal_id_ASTM
primary 'Izvestiya Akademii Nauk SSSR, Neorganicheskie Materialy' 1977 13 1839
1842 IVNMAW
loop_
_citation_author_citation_id
_citation_author_name
primary 'Galkin, L.N.'
primary 'Vavilova, V.V.'
primary 'Fykin, L.E.'
_cell_length_a 9.501
_cell_length_b 2.936
_cell_length_c 7.753
_cell_angle_alpha 90.
_cell_angle_beta 90.44
_cell_angle_gamma 90.
_cell_volume 216.26
_cell_formula_units_Z 1
_space_group_name_H-M_alt 'C 1 2/m 1'
_space_group_IT_number 12
loop_
_space_group_symop_id
_space_group_symop_operation_xyz
1 '-x, y, -z'
2 '-x, -y, -z'
3 'x, -y, z'
4 'x, y, z'
5 '-x+1/2, y+1/2, -z'
6 '-x+1/2, -y+1/2, -z'
7 'x+1/2, -y+1/2, z'
8 'x+1/2, y+1/2, z'
loop_
_atom_type_symbol
_atom_type_oxidation_number
V0+ 0
O0+ 0
loop_
_atom_site_label
_atom_site_type_symbol
_atom_site_symmetry_multiplicity
_atom_site_Wyckoff_symbol
_atom_site_fract_x
_atom_site_fract_y
_atom_site_fract_z
_atom_site_B_iso_or_equiv
_atom_site_occupancy
V1 V0+ 2 a 0. 0. 0. . 1.
V2 V0+ 4 i 0.13 0. 0.6 . 1.
V3 V0+ 4 i 0.3 0. 0.11 . 1.
V4 V0+ 4 i 0.58 0. 0.26 . 1.
O1 O0+ 2 d 0. 0.5 0.5 . 1.
O2 O0+ 4 i 0.21 0. 0.36 . 1.
#End of TTdata_200243-ICSD