
#(C) 2022 by FIZ Karlsruhe - Leibniz Institute for Information Infrastructure.  All rights reserved.
data_155017-ICSD
_database_code_ICSD 155017
_audit_creation_date 2007-04-01
_audit_update_record 2016-02-01
_chemical_name_common 'Niobium oxide (12/29)- LT'
_chemical_formula_structural 'Nb12 O29'
_chemical_formula_sum 'Nb12 O29'
_chemical_name_structure_type Nb12O29
_exptl_crystal_density_diffrn 4.58
_diffrn_ambient_temperature 2.
_citation_title 'Structure and electronic properties of monoclinic Nb12 O29'
loop_
_citation_id
_citation_journal_full
_citation_year
_citation_journal_volume
_citation_page_first
_citation_page_last
_citation_journal_id_ASTM
primary 'Journal of Physics F: Metal Physics' 2004 65 79 86 JPFMAT
loop_
_citation_author_citation_id
_citation_author_name
primary 'Waldron, J.E.L.'
primary 'Green, M.A.'
primary 'Neumann, D.A.'
_cell_length_a 20.7171
_cell_length_b 3.8303
_cell_length_c 15.692
_cell_angle_alpha 90.
_cell_angle_beta 113.112
_cell_angle_gamma 90.
_cell_volume 1145.26
_cell_formula_units_Z 2
_space_group_name_H-M_alt 'C 1 m 1'
_space_group_IT_number 8
loop_
_space_group_symop_id
_space_group_symop_operation_xyz
1 'x, -y, z'
2 'x, y, z'
3 'x+1/2, -y+1/2, z'
4 'x+1/2, y+1/2, z'
loop_
_atom_type_symbol
_atom_type_oxidation_number
Nb4+ 4.83
O2- -2
loop_
_atom_site_label
_atom_site_type_symbol
_atom_site_symmetry_multiplicity
_atom_site_Wyckoff_symbol
_atom_site_fract_x
_atom_site_fract_y
_atom_site_fract_z
_atom_site_U_iso_or_equiv
_atom_site_occupancy
Nb1 Nb4+ 2 a 0.305 0. 0.757 0.0113 1.
Nb2 Nb4+ 2 a 0.919 0. 0.733 0.0113 1.
Nb3 Nb4+ 2 a 0.118 0. 0.736 0.0113 1.
Nb4 Nb4+ 2 a 0.378 0. 0.996 0.0113 1.
Nb5 Nb4+ 2 a 0. 0. 0. 0.0113 1.
Nb6 Nb4+ 2 a 0.197 0. 0.006 0.0113 1.
Nb7 Nb4+ 2 a 0.17 0. 0.55 0.0113 1.
Nb8 Nb4+ 2 a 0.53 0. 0.535 0.0113 1.
Nb9 Nb4+ 2 a 0.352 0. 0.553 0.0113 1.
Nb10 Nb4+ 2 a 0.092 0. 0.276 0.0113 1.
Nb11 Nb4+ 2 a 0.454 0. 0.269 0.0113 1.
Nb12 Nb4+ 2 a 0.271 0. 0.261 0.0113 1.
O1 O2- 2 a 0.228 0. 0.123 0.0042 1.
O2 O2- 2 a 0.406 0. 0.72 0.0042 1.
O3 O2- 2 a 0.609 0. 0.72 0.0042 1.
O4 O2- 2 a 0.82 0. 0.721 0.0042 1.
O5 O2- 2 a 0.02 0. 0.728 0.0042 1.
O6 O2- 2 a 0.214 0. 0.725 0.0042 1.
O7 O2- 2 a 0.836 0. 0.854 0.0042 1.
O8 O2- 2 a 0.957 0. 0.851 0.0042 1.
O9 O2- 2 a 0.157 0. 0.867 0.0042 1.
O10 O2- 2 a 0.288 0. 0.011 0.0042 1.
O11 O2- 2 a 0.481 0. 0.01 0.0042 1.
O12 O2- 2 a 0.695 0. 0.01 0.0042 1.
O13 O2- 2 a 0.897 0. 0.006 0.0042 1.
O14 O2- 2 a 0.1 0. 0.011 0.0042 1.
O15 O2- 2 a 0.427 0. 0.153 0.0042 1.
O16 O2- 2 a 0.071 0. 0.575 0.0042 1.
O17 O2- 2 a 0.863 0. 0.575 0.0042 1.
O18 O2- 2 a 0.66 0. 0.574 0.0042 1.
O19 O2- 2 a 0.459 0. 0.573 0.0042 1.
O20 O2- 2 a 0.266 0. 0.583 0.0042 1.
O21 O2- 2 a 0.138 0. 0.418 0.0042 1.
O22 O2- 2 a 0.002 0. 0.435 0.0042 1.
O23 O2- 2 a 0.31 0. 0.394 0.0042 1.
O24 O2- 2 a 0.186 0. 0.29 0.0042 1.
O25 O2- 2 a 0.981 0. 0.29 0.0042 1.
O26 O2- 2 a 0.78 0. 0.294 0.0042 1.
O27 O2- 2 a 0.573 0. 0.286 0.0042 1.
O28 O2- 2 a 0.373 0. 0.29 0.0042 1.
O29 O2- 2 a 0.04 0. 0.151 0.0042 1.
#End of TTdata_155017-ICSD