
#(C) 2022 by FIZ Karlsruhe - Leibniz Institute for Information Infrastructure.  All rights reserved.
data_254184-ICSD
_database_code_ICSD 254184
_audit_creation_date 2018-02-01
_chemical_name_common 'Vanadium oxide (1/2)'
_chemical_formula_structural 'V O2'
_chemical_formula_sum 'O2 V1'
_chemical_name_structure_type CrPS4
_exptl_crystal_density_diffrn 4.62
_diffrn_ambient_temperature 298.
_citation_title
'V3.047 O7, a new high-pressure oxide with the simpsonite structure'
loop_
_citation_id
_citation_journal_full
_citation_year
_citation_journal_volume
_citation_page_first
_citation_page_last
_citation_journal_id_ASTM
primary 'Inorganic Materials' 2016 52 902 908 INOMAF
loop_
_citation_author_citation_id
_citation_author_name
primary 'Zibrov, I.P.'
primary 'Filonenko, V.P.'
primary 'Sidorov, V.A.'
primary 'Lyapin, S.G.'
_cell_length_a 9.0927
_cell_length_b 5.7819
_cell_length_c 4.5415
_cell_angle_alpha 90.
_cell_angle_beta 90.925
_cell_angle_gamma 90.
_cell_volume 238.73
_cell_formula_units_Z 8
_space_group_name_H-M_alt 'C 1 2/m 1'
_space_group_IT_number 12
loop_
_space_group_symop_id
_space_group_symop_operation_xyz
1 '-x, y, -z'
2 '-x, -y, -z'
3 'x, -y, z'
4 'x, y, z'
5 '-x+1/2, y+1/2, -z'
6 '-x+1/2, -y+1/2, -z'
7 'x+1/2, -y+1/2, z'
8 'x+1/2, y+1/2, z'
loop_
_atom_type_symbol
_atom_type_oxidation_number
V4+ 4
O2- -2
loop_
_atom_site_label
_atom_site_type_symbol
_atom_site_symmetry_multiplicity
_atom_site_Wyckoff_symbol
_atom_site_fract_x
_atom_site_fract_y
_atom_site_fract_z
_atom_site_U_iso_or_equiv
_atom_site_occupancy
V1 V4+ 4 h 0. 0.27326 0.5 0.0274 1.
V2 V4+ 4 i 0.22466 0. 0.01411 0.0124 1.
O1 O2- 8 j 0.36177 0.2436 0.19895 0.025 1.
O2 O2- 4 i 0.61694 0. 0.31877 0.028 1.
O3 O2- 4 i 0.10489 0. 0.29996 0.009 1.
#End of TTdata_254184-ICSD