
#(C) 2022 by FIZ Karlsruhe - Leibniz Institute for Information Infrastructure.  All rights reserved.
data_97867-ICSD
_database_code_ICSD 97867
_audit_creation_date 2004-10-01
_audit_update_record 2016-02-01
_chemical_name_common 'Manganese dimanganese(III) oxide - HP'
_chemical_formula_structural 'Mn3 O4'
_chemical_formula_sum 'Mn3 O4'
_chemical_name_structure_type CaMn2O4
_chemical_name_mineral Hausmannite
_exptl_crystal_density_diffrn 5.96
_diffrn_ambient_temperature 300.
_diffrn_ambient_pressure 21100000.
_citation_title 'High-pressure structural analysis of Mn3 O4'
loop_
_citation_id
_citation_journal_full
_citation_year
_citation_journal_volume
_citation_page_first
_citation_page_last
_citation_journal_id_ASTM
primary 'Journal of the Physical Society of Japan' 2003 72 765 766 JUPSAU
loop_
_citation_author_citation_id
_citation_author_name
primary 'Moritomo, Y.'
primary 'Ohishi, Y.'
primary 'Kuriki, A.'
primary 'Nishibori, E.'
primary 'Takata, M.'
primary 'Sakata, M.'
_cell_length_a 2.896
_cell_length_b 9.5081
_cell_length_c 9.2587
_cell_angle_alpha 90.
_cell_angle_beta 90.
_cell_angle_gamma 90.
_cell_volume 254.94
_cell_formula_units_Z 4
_space_group_name_H-M_alt 'P b c m'
_space_group_IT_number 57
loop_
_space_group_symop_id
_space_group_symop_operation_xyz
1 'x, -y+1/2, z+1/2'
2 '-x, y+1/2, z'
3 'x, y, -z+1/2'
4 '-x, -y, -z'
5 '-x, y+1/2, -z+1/2'
6 'x, -y+1/2, -z'
7 '-x, -y, z+1/2'
8 'x, y, z'
loop_
_atom_type_symbol
_atom_type_oxidation_number
Mn2+ 2
Mn3+ 3
O2- -2
loop_
_atom_site_label
_atom_site_type_symbol
_atom_site_symmetry_multiplicity
_atom_site_Wyckoff_symbol
_atom_site_fract_x
_atom_site_fract_y
_atom_site_fract_z
_atom_site_B_iso_or_equiv
_atom_site_occupancy
Mn1 Mn2+ 4 d 0.208 0.629 0.25 0.5 1.
Mn2 Mn3+ 8 e 0.272 0.368 0.084 0.5 1.
O1 O2- 4 c 0.662 0.25 0. 0.5 1.
O2 O2- 4 d 0.252 0.327 0.25 0.5 1.
O3 O2- 8 e 0.166 0.049 0.057 0.5 1.
#End of TTdata_97867-ICSD