
#(C) 2022 by FIZ Karlsruhe - Leibniz Institute for Information Infrastructure.  All rights reserved.
data_24034-ICSD
_database_code_ICSD 24034
_audit_creation_date 1980-01-01
_audit_update_record 2005-10-01
_chemical_name_common 'Manganese(IV) oxide'
_chemical_formula_structural 'Mn O2'
_chemical_formula_sum 'Mn1 O2'
_chemical_name_structure_type MnO2
_chemical_name_mineral Ramsdellite
_exptl_crystal_density_diffrn 4.79
_citation_title
'The crystal structure of ramsdellite, an orthorhombic modification of Mn O2'
loop_
_citation_id
_citation_journal_full
_citation_year
_citation_journal_volume
_citation_page_first
_citation_page_last
_citation_journal_id_ASTM
primary 'Acta Chemica Scandinavica ' 1949 3 163 173 ACSAA4
loop_
_citation_author_citation_id
_citation_author_name
primary 'Bystroem, A.M.'
_cell_length_a 9.27
_cell_length_b 2.866
_cell_length_c 4.533
_cell_angle_alpha 90.
_cell_angle_beta 90.
_cell_angle_gamma 90.
_cell_volume 120.43
_cell_formula_units_Z 4
_space_group_name_H-M_alt 'P n m a'
_space_group_IT_number 62
loop_
_space_group_symop_id
_space_group_symop_operation_xyz
1 'x+1/2, y, -z+1/2'
2 'x, -y+1/2, z'
3 '-x+1/2, y+1/2, z+1/2'
4 '-x, -y, -z'
5 '-x+1/2, -y, z+1/2'
6 '-x, y+1/2, -z'
7 'x+1/2, -y+1/2, -z+1/2'
8 'x, y, z'
loop_
_atom_type_symbol
_atom_type_oxidation_number
Mn4+ 4
O2- -2
loop_
_atom_site_label
_atom_site_type_symbol
_atom_site_symmetry_multiplicity
_atom_site_Wyckoff_symbol
_atom_site_fract_x
_atom_site_fract_y
_atom_site_fract_z
_atom_site_B_iso_or_equiv
_atom_site_occupancy
Mn1 Mn4+ 4 c 0.364 0.25 0.022 . 1.
O1 O2- 4 c 0.225 0.25 0.333 . 1.
O2 O2- 4 c 0.033 0.25 0.711 . 1.
#End of TTdata_24034-ICSD