
#(C) 2022 by FIZ Karlsruhe - Leibniz Institute for Information Infrastructure.  All rights reserved.
data_51214-ICSD
_database_code_ICSD 51214
_audit_creation_date 2002-04-01
_chemical_name_common 'Vanadium(IV) oxide'
_chemical_formula_structural 'V O2'
_chemical_formula_sum 'O2 V1'
_exptl_crystal_density_diffrn 4.01
_diffrn_ambient_temperature 473.
_citation_title 'Crystal structures and transition mechanism of V O2(A)'
loop_
_citation_id
_citation_journal_full
_citation_year
_citation_journal_volume
_citation_page_first
_citation_page_last
_citation_journal_id_ASTM
primary 'Journal of Solid State Chemistry' 1998 141 594 598 JSSCBI
loop_
_citation_author_citation_id
_citation_author_name
primary 'Oka, Y.'
primary 'Sato, S.'
primary 'Yao, T.'
primary 'Yamamoto, N.'
_cell_length_a 8.476
_cell_length_b 8.476
_cell_length_c 3.824
_cell_angle_alpha 90.
_cell_angle_beta 90.
_cell_angle_gamma 90.
_cell_volume 274.73
_cell_formula_units_Z 8
_space_group_name_H-M_alt 'I 4/m'
_space_group_IT_number 87
loop_
_space_group_symop_id
_space_group_symop_operation_xyz
1 '-y, x, -z'
2 'y, -x, -z'
3 'x, y, -z'
4 '-x, -y, -z'
5 'y, -x, z'
6 '-y, x, z'
7 '-x, -y, z'
8 'x, y, z'
9 '-y+1/2, x+1/2, -z+1/2'
10 'y+1/2, -x+1/2, -z+1/2'
11 'x+1/2, y+1/2, -z+1/2'
12 '-x+1/2, -y+1/2, -z+1/2'
13 'y+1/2, -x+1/2, z+1/2'
14 '-y+1/2, x+1/2, z+1/2'
15 '-x+1/2, -y+1/2, z+1/2'
16 'x+1/2, y+1/2, z+1/2'
loop_
_atom_type_symbol
_atom_type_oxidation_number
V4+ 4
O2- -2
loop_
_atom_site_label
_atom_site_type_symbol
_atom_site_symmetry_multiplicity
_atom_site_Wyckoff_symbol
_atom_site_fract_x
_atom_site_fract_y
_atom_site_fract_z
_atom_site_B_iso_or_equiv
_atom_site_occupancy
V1 V4+ 8 h 0.02543 0.30024 0. . 1.
O1 O2- 8 h 0.1528 0.4995 0. . 1.
O2 O2- 8 h 0.1601 0.1601 0. . 1.
loop_
_atom_site_aniso_label
_atom_site_aniso_type_symbol
_atom_site_aniso_U_11
_atom_site_aniso_U_22
_atom_site_aniso_U_33
_atom_site_aniso_U_12
_atom_site_aniso_U_13
_atom_site_aniso_U_23
V1 V4+ 0.00715 0.00827 0.00681 0.00058 0. 0.
O1 O2- 0.0117 0.0125 0.0153 0.0044 0. 0.
O2 O2- 0.0096 0.0101 0.0065 -0.0019 0. 0.
#End of TTdata_51214-ICSD