
#(C) 2022 by FIZ Karlsruhe - Leibniz Institute for Information Infrastructure.  All rights reserved.
data_113664-ICSD
_database_code_ICSD 113664
_audit_creation_date 2022-08-01
_chemical_name_common 'Dimanganese trioxide'
_chemical_formula_structural 'Mn2 O3'
_chemical_formula_sum 'Mn2 O3'
_chemical_name_structure_type Ilmenite#TiFeO3
_exptl_crystal_density_diffrn 5.12
_diffrn_ambient_temperature 293.
_citation_title
'Synthesis of ilmenite-type \(\varepsilon\)-Mn\(_2\)O\(_3\) and its properties'
loop_
_citation_id
_citation_journal_full
_citation_year
_citation_journal_volume
_citation_page_first
_citation_page_last
_citation_journal_id_ASTM
primary 'Inorganic Chemistry' 2021 60 13348 13358 INOCAJ
loop_
_citation_author_citation_id
_citation_author_name
primary 'Ovsyannikov, Sergey V.'
primary 'Tsirlin, Alexander A.'
primary 'Korobeynikov, Igor V.'
primary 'Morozova, Natalia V.'
primary 'Aslandukova, Alena A.'
primary 'Steinle-Neumann, Gerd'
primary 'Chariton, Stella'
primary 'Khandarkhaeva, Saiana'
primary 'Glazyrin, Konstantin'
primary 'Wilhelm, Fabrice'
primary 'Rogalev, Andrei'
primary 'Dubrovinsky, Leonid'
_cell_length_a 5.0148
_cell_length_b 5.0148
_cell_length_c 14.1141
_cell_angle_alpha 90.
_cell_angle_beta 90.
_cell_angle_gamma 120.
_cell_volume 307.39
_cell_formula_units_Z 6
_space_group_name_H-M_alt 'R -3 H'
_space_group_IT_number 148
loop_
_space_group_symop_id
_space_group_symop_operation_xyz
1 'x-y, x, -z'
2 'y, -x+y, -z'
3 '-x, -y, -z'
4 '-x+y, -x, z'
5 '-y, x-y, z'
6 'x, y, z'
7 'x-y+2/3, x+1/3, -z+1/3'
8 'y+2/3, -x+y+1/3, -z+1/3'
9 '-x+2/3, -y+1/3, -z+1/3'
10 '-x+y+2/3, -x+1/3, z+1/3'
11 '-y+2/3, x-y+1/3, z+1/3'
12 'x+2/3, y+1/3, z+1/3'
13 'x-y+1/3, x+2/3, -z+2/3'
14 'y+1/3, -x+y+2/3, -z+2/3'
15 '-x+1/3, -y+2/3, -z+2/3'
16 '-x+y+1/3, -x+2/3, z+2/3'
17 '-y+1/3, x-y+2/3, z+2/3'
18 'x+1/3, y+2/3, z+2/3'
loop_
_atom_type_symbol
_atom_type_oxidation_number
Mn4+ 4
Mn2+ 2
O2- -2
loop_
_atom_site_label
_atom_site_type_symbol
_atom_site_symmetry_multiplicity
_atom_site_Wyckoff_symbol
_atom_site_fract_x
_atom_site_fract_y
_atom_site_fract_z
_atom_site_U_iso_or_equiv
_atom_site_occupancy
Mn1 Mn4+ 6 c 0. 0. 0.34075 0.0114 1.
Mn2 Mn2+ 6 c 0. 0. 0.13691 0.0132 1.
O1 O2- 18 f 0.37503 0.01287 0.07547 0.0159 1.
loop_
_atom_site_aniso_label
_atom_site_aniso_type_symbol
_atom_site_aniso_U_11
_atom_site_aniso_U_22
_atom_site_aniso_U_33
_atom_site_aniso_U_12
_atom_site_aniso_U_13
_atom_site_aniso_U_23
Mn1 Mn4+ 0.0111 0.0111 0.0121 0.00555 0. 0.
Mn2 Mn2+ 0.012 0.012 0.0157 0.006 0. 0.
O1 O2- 0.0169 0.0129 0.0165 0.0063 -0.0018 0.0016
#End of TTdata_113664-ICSD