
#(C) 2022 by FIZ Karlsruhe - Leibniz Institute for Information Infrastructure.  All rights reserved.
data_8244-ICSD
_database_code_ICSD 8244
_audit_creation_date 1980-01-01
_audit_update_record 2012-08-01
_chemical_name_common 'Niobium(IV) oxide'
_chemical_formula_structural 'Nb O2'
_chemical_formula_sum 'Nb1 O2'
_chemical_name_structure_type NbO2
_exptl_crystal_density_diffrn 5.92
_citation_title 'Structural features of Nb(1-x) Tix O2'
loop_
_citation_id
_citation_journal_full
_citation_year
_citation_journal_volume
_citation_page_first
_citation_page_last
_citation_journal_id_ASTM
primary

;
Acta Crystallographica, Section B: Structural Crystallography and Crystal
Chemistry
; 1979 35 2836 2842 ACBCAR
loop_
_citation_author_citation_id
_citation_author_name
primary 'Sakata, K.'
_cell_length_a 13.695
_cell_length_b 13.695
_cell_length_c 5.981
_cell_angle_alpha 90.
_cell_angle_beta 90.
_cell_angle_gamma 90.
_cell_volume 1121.75
_cell_formula_units_Z 32
_space_group_name_H-M_alt 'I 41/a Z'
_space_group_IT_number 88
loop_
_space_group_symop_id
_space_group_symop_operation_xyz
1 '-y+3/4, x+3/4, -z+3/4'
2 'y+1/4, -x+3/4, -z+3/4'
3 'x, y+1/2, -z'
4 '-x, -y, -z'
5 'y+1/4, -x+1/4, z+1/4'
6 '-y+3/4, x+1/4, z+1/4'
7 '-x, -y+1/2, z'
8 'x, y, z'
9 '-y+1/4, x+1/4, -z+1/4'
10 'y+3/4, -x+1/4, -z+1/4'
11 'x+1/2, y, -z+1/2'
12 '-x+1/2, -y+1/2, -z+1/2'
13 'y+3/4, -x+3/4, z+3/4'
14 '-y+1/4, x+3/4, z+3/4'
15 '-x+1/2, -y, z+1/2'
16 'x+1/2, y+1/2, z+1/2'
loop_
_atom_type_symbol
_atom_type_oxidation_number
Nb4+ 4
O2- -2
loop_
_atom_site_label
_atom_site_type_symbol
_atom_site_symmetry_multiplicity
_atom_site_Wyckoff_symbol
_atom_site_fract_x
_atom_site_fract_y
_atom_site_fract_z
_atom_site_B_iso_or_equiv
_atom_site_occupancy
Nb1 Nb4+ 16 f 0.115 0.125 0.4757 . 1.
Nb2 Nb4+ 16 f 0.1345 0.125 0.0254 . 1.
O1 O2- 16 f 0.1228 0.2338 0.2593 . 1.
O2 O2- 16 f 0.4737 0.1267 0.004 . 1.
O3 O2- 16 f 0.2719 0.1261 0.0063 . 1.
O4 O2- 16 f 0.125 0.0107 0.2609 . 1.
loop_
_atom_site_aniso_label
_atom_site_aniso_type_symbol
_atom_site_aniso_beta_11
_atom_site_aniso_beta_22
_atom_site_aniso_beta_33
_atom_site_aniso_beta_12
_atom_site_aniso_beta_13
_atom_site_aniso_beta_23
Nb1 Nb4+ 0.0004 0.0002 0.0056 0. 0.0001 0.0001
Nb2 Nb4+ 0.0005 0.0003 0.0043 0. 0. 0.0001
O1 O2- 0.0011 0.0006 -0.0078 -0.0002 -0.0012 0.0001
O2 O2- 0.0002 0.0005 -0.0038 0.0001 0.0003 0.0003
O3 O2- 0.0019 0.0007 0.0095 0.0002 0.0007 -0.0007
O4 O2- 0.0004 0.0008 0.007 0.0002 -0.0008 -0.0014
#End of TTdata_8244-ICSD