
#(C) 2022 by FIZ Karlsruhe - Leibniz Institute for Information Infrastructure.  All rights reserved.
data_160156-ICSD
_database_code_ICSD 160156
_audit_creation_date 2008-08-01
_chemical_name_common 'Niobium oxide (22/54)'
_chemical_formula_structural 'Nb22 O54'
_chemical_formula_sum 'Nb22 O54'
_exptl_crystal_density_diffrn 4.59
_diffrn_ambient_temperature 200.
_citation_title 'Structures of the reduced niobium oxides Nb12 O29 and Nb22 O54'
loop_
_citation_id
_citation_journal_full
_citation_year
_citation_journal_volume
_citation_page_first
_citation_page_last
_citation_journal_id_ASTM
primary 'Journal of Solid State Chemistry' 2007 180 2864 2870 JSSCBI
loop_
_citation_author_citation_id
_citation_author_name
primary 'McQueen, T.'
primary 'Xu, Q.'
primary 'Andersen, E.N.'
primary 'Zandbergen, H.W.'
primary 'Cava, R.J.'
_cell_length_a 15.7491
_cell_length_b 3.8236
_cell_length_c 17.8521
_cell_angle_alpha 90.
_cell_angle_beta 102.029
_cell_angle_gamma 90.
_cell_volume 1051.42
_cell_formula_units_Z 1
_space_group_name_H-M_alt 'P 1 2/m 1'
_space_group_IT_number 10
loop_
_space_group_symop_id
_space_group_symop_operation_xyz
1 '-x, y, -z'
2 '-x, -y, -z'
3 'x, -y, z'
4 'x, y, z'
loop_
_atom_type_symbol
_atom_type_oxidation_number
Nb4+ 4.91
O2- -2
loop_
_atom_site_label
_atom_site_type_symbol
_atom_site_symmetry_multiplicity
_atom_site_Wyckoff_symbol
_atom_site_fract_x
_atom_site_fract_y
_atom_site_fract_z
_atom_site_B_iso_or_equiv
_atom_site_occupancy
Nb1 Nb4+ 2 m 0.04947 0. 0.42869 . 1.
Nb2 Nb4+ 2 m 0.19313 0. 0.63439 . 1.
Nb3 Nb4+ 2 m 0.66133 0. 0.16546 . 1.
Nb4 Nb4+ 2 m 0.45793 0. 0.25603 . 1.
Nb5 Nb4+ 2 m 0.39929 0. 0.54279 . 1.
Nb6 Nb4+ 2 m 0.25733 0. 0.34239 . 1.
Nb7 Nb4+ 2 n 0.05462 0.5 0.71404 . 1.
Nb8 Nb4+ 2 n 0.14906 0.5 0.19901 . 1.
Nb9 Nb4+ 2 n 0.34998 0.5 0.1123 . 1.
Nb10 Nb4+ 2 n 0.79726 0.5 0.08644 . 1.
Nb11 Nb4+ 1 b 0. 0.5 0. . 1.
Nb12 Nb4+ 2 j 0.5 0.2198 0. . 0.403
Nb13 Nb4+ 2 n 0.5617 0.5 0.0294 . 0.0677
Nb14 Nb4+ 2 m 0.4807 0. 0.045 . 0.0295
O1 O2- 2 m 0.0548 0. 0.6787 . 1.
O2 O2- 2 n 0.0209 0.5 0.4068 . 1.
O3 O2- 2 m 0.0848 0. 0.5349 . 1.
O4 O2- 2 m 0.1463 0. 0.392 . 1.
O5 O2- 2 n 0.1583 0.5 0.6444 . 1.
O6 O2- 2 m 0.254 0. 0.7357 . 1.
O7 O2- 2 m 0.2778 0. 0.5838 . 1.
O8 O2- 2 n 0.6869 0.5 0.1494 . 1.
O9 O2- 2 m 0.7749 0. 0.1033 . 1.
O10 O2- 2 m 0.596 0. 0.0566 . 1.
O11 O2- 2 m 0.5659 0. 0.2043 . 1.
O12 O2- 2 n 0.4432 0.5 0.2251 . 1.
O13 O2- 2 m 0.3774 0. 0.1351 . 1.
O14 O2- 2 m 0.3535 0. 0.2927 . 1.
O15 O2- 2 m 0.5309 0. 0.3487 . 1.
O16 O2- 2 n 0.3877 0.5 0.5502 . 1.
O17 O2- 1 g 0.5 0. 0.5 . 1.
O18 O2- 2 m 0.3227 0. 0.4388 . 1.
O19 O2- 2 n 0.2315 0.5 0.3189 . 1.
O20 O2- 2 m 0.1649 0. 0.2288 . 1.
O21 O2- 2 n 0.4616 0.5 0.067 . 1.
O22 O2- 2 n 0.2845 0.5 0.013 . 1.
O23 O2- 2 n 0.2555 0.5 0.1598 . 1.
O24 O2- 2 n 0.1313 0.5 0.804 . 1.
O25 O2- 2 n 0.893 0.5 0.0461 . 1.
O26 O2- 2 n 0.046 0.5 0.2536 . 1.
O27 O2- 2 n 0.0773 0.5 0.1063 . 1.
O28 O2- 1 a 0. 0. 0. . 1.
loop_
_atom_site_aniso_label
_atom_site_aniso_type_symbol
_atom_site_aniso_U_11
_atom_site_aniso_U_22
_atom_site_aniso_U_33
_atom_site_aniso_U_12
_atom_site_aniso_U_13
_atom_site_aniso_U_23
Nb1 Nb4+ 0.0111 0.0089 0.0084 0. 0.0012 0.
Nb2 Nb4+ 0.0115 0.0108 0.0098 0. 0.0023 0.
Nb3 Nb4+ 0.0128 0.0116 0.0119 0. 0.0035 0.
Nb4 Nb4+ 0.0109 0.0091 0.008 0. 0.0009 0.
Nb5 Nb4+ 0.0107 0.0406 0.0077 0. 0.0007 0.
Nb6 Nb4+ 0.0113 0.0089 0.0083 0. 0.0003 0.
Nb7 Nb4+ 0.0112 0.0091 0.0079 0. 0.0009 0.
Nb8 Nb4+ 0.0119 0.0091 0.0075 0. -0.0007 0.
Nb9 Nb4+ 0.0121 0.0101 0.0087 0. 0.0007 0.
Nb10 Nb4+ 0.0102 0.01 0.0093 0. 0.0019 0.
Nb11 Nb4+ 0.0112 0.0364 0.0078 0. 0.0006 0.
Nb12 Nb4+ 0.0094 0.0403 0.0082 0. 0.001 0.
Nb13 Nb4+ 0.0094 0.0403 0.0082 0. 0.001 0.
Nb14 Nb4+ 0.0094 0.0403 0.0082 0. 0.001 0.
O1 O2- 0.013 0.006 0.009 0. -0.001 0.
O2 O2- 0.011 0.01 0.009 0. -0.001 0.
O3 O2- 0.018 0.016 0.008 0. 0.002 0.
O4 O2- 0.016 0.012 0.015 0. 0.004 0.
O5 O2- 0.007 0.012 0.015 0. 0.005 0.
O6 O2- 0.017 0.012 0.012 0. 0. 0.
O7 O2- 0.016 0.023 0.012 0. 0.004 0.
O8 O2- 0.017 0.011 0.017 0. 0.01 0.
O9 O2- 0.015 0.013 0.018 0. 0.004 0.
O10 O2- 0.025 0.019 0.014 0. 0.003 0.
O11 O2- 0.015 0.011 0.017 0. 0.008 0.
O12 O2- 0.011 0.014 0.008 0. -0.002 0.
O13 O2- 0.015 0.008 0.017 0. -0.002 0.
O14 O2- 0.012 0.013 0.014 0. 0.004 0.
O15 O2- 0.012 0.019 0.012 0. 0. 0.
O16 O2- 0.017 0.016 0.023 0. 0.004 0.
O17 O2- 0.015 0.03 0.008 0. 0.004 0.
O18 O2- 0.013 0.014 0.011 0. 0. 0.
O19 O2- 0.014 0.01 0.01 0. 0. 0.
O20 O2- 0.014 0.007 0.01 0. -0.002 0.
O21 O2- 0.016 0.035 0.018 0. 0.005 0.
O22 O2- 0.016 0.015 0.011 0. -0.002 0.
O23 O2- 0.015 0.015 0.013 0. 0.002 0.
O24 O2- 0.015 0.012 0.013 0. 0.003 0.
O25 O2- 0.015 0.019 0.01 0. 0.004 0.
O26 O2- 0.014 0.011 0.014 0. 0.006 0.
O27 O2- 0.014 0.008 0.014 0. 0.003 0.
O28 O2- 0.018 0.015 0.023 0. 0.003 0.
#End of TTdata_160156-ICSD