
#(C) 2022 by FIZ Karlsruhe - Leibniz Institute for Information Infrastructure.  All rights reserved.
data_425510-ICSD
_database_code_ICSD 425510
_audit_creation_date 2014-02-01
_chemical_name_common 'Divanadium pentaoxide'
_chemical_formula_structural 'V2 O5'
_chemical_formula_sum 'O5 V2'
_chemical_name_structure_type Sb2O5
_exptl_crystal_density_diffrn 4.16
_diffrn_ambient_temperature 298.
_citation_title

;
The high pressure phases beta- and delta-V2 O5. Structure refinement,
electrical and optical properties, thermal stability
;
loop_
_citation_id
_citation_journal_full
_citation_year
_citation_journal_volume
_citation_page_first
_citation_page_last
_citation_journal_id_ASTM
primary 'High Pressure Research' 2013 33 399 408 HPRSEL
loop_
_citation_author_citation_id
_citation_author_name
primary 'Zibrov, Igor P.'
primary 'Filonenko, Vladimir P.'
primary 'Lyapin, Sergey G.'
primary 'Sidorov, Vladimir A.'
_cell_length_a 11.9695
_cell_length_b 4.6992
_cell_length_c 5.3264
_cell_angle_alpha 90.
_cell_angle_beta 104.327
_cell_angle_gamma 90.
_cell_volume 290.28
_cell_formula_units_Z 4
_space_group_name_H-M_alt 'C 1 2/c 1'
_space_group_IT_number 15
loop_
_space_group_symop_id
_space_group_symop_operation_xyz
1 'x, -y, z+1/2'
2 '-x, -y, -z'
3 '-x, y, -z+1/2'
4 'x, y, z'
5 'x+1/2, -y+1/2, z+1/2'
6 '-x+1/2, -y+1/2, -z'
7 '-x+1/2, y+1/2, -z+1/2'
8 'x+1/2, y+1/2, z'
loop_
_atom_type_symbol
_atom_type_oxidation_number
V5+ 5
O2- -2
loop_
_atom_site_label
_atom_site_type_symbol
_atom_site_symmetry_multiplicity
_atom_site_Wyckoff_symbol
_atom_site_fract_x
_atom_site_fract_y
_atom_site_fract_z
_atom_site_U_iso_or_equiv
_atom_site_occupancy
V1 V5+ 8 f 0.14315 0.2376 0.24462 0.0103 1.
O1 O2- 4 e 0. 0.1161 0.25 0.0035 1.
O2 O2- 8 f 0.3927 0.0698 0.0211 0.0037 1.
O3 O2- 8 f 0.2972 0.4298 0.3691 0.006 1.
#End of TTdata_425510-ICSD