
#(C) 2022 by FIZ Karlsruhe - Leibniz Institute for Information Infrastructure.  All rights reserved.
data_36977-ICSD
_database_code_ICSD 36977
_audit_creation_date 2022-02-01
_chemical_name_common 'Manganese diniobate'
_chemical_formula_structural 'Mn Nb1.984 O5.293'
_chemical_formula_sum 'Mn1 Nb1.984 O5.293'
_exptl_crystal_density_diffrn 5.04
_citation_title

;
The effect of hydrogen induced point defects on lithiation kinetics in
manganese niobate anode
;
loop_
_citation_id
_citation_journal_full
_citation_year
_citation_journal_volume
_citation_page_first
_citation_page_last
_citation_journal_id_ASTM
primary 'Journal of Alloys and Compounds' 2021 877 '' '' JALCEU
loop_
_citation_author_citation_id
_citation_author_name
primary 'Wang, Ting'
primary 'Zhu, Tianyi'
primary 'Wu, Jiqi'
primary 'Huang, Zhixiong'
primary 'Chen, Qing'
primary 'Hu, Wanjuan'
primary 'Huang, Yuna'
primary 'Shi, Shaojun'
primary 'Yin, Wenyu'
_cell_length_a 14.4745
_cell_length_b 5.7828
_cell_length_c 5.1045
_cell_angle_alpha 90.
_cell_angle_beta 90.
_cell_angle_gamma 90.
_cell_volume 427.26
_cell_formula_units_Z 4
_space_group_name_H-M_alt 'P b c n'
_space_group_IT_number 60
loop_
_space_group_symop_id
_space_group_symop_operation_xyz
1 'x, -y, z+1/2'
2 '-x+1/2, y+1/2, z'
3 'x+1/2, y+1/2, -z+1/2'
4 '-x, -y, -z'
5 '-x, y, -z+1/2'
6 'x+1/2, -y+1/2, -z'
7 '-x+1/2, -y+1/2, z+1/2'
8 'x, y, z'
loop_
_atom_type_symbol
_atom_type_oxidation_number
Mn2+ 2
Nb4+ 4.337
O2- -2
loop_
_atom_site_label
_atom_site_type_symbol
_atom_site_symmetry_multiplicity
_atom_site_Wyckoff_symbol
_atom_site_fract_x
_atom_site_fract_y
_atom_site_fract_z
_atom_site_B_iso_or_equiv
_atom_site_occupancy
Mn1 Mn2+ 4 c 0. 0.3316 0.25 . 1.
Nb1 Nb4+ 8 d 0.33752 0.3188 0.24669 . 0.9922
O1 O2- 8 d 0.08864 0.1099 0.04167 . 1.
O2 O2- 8 d 0.42378 0.12307 0.10527 . 1.
O3 O2- 8 d 0.23502 0.10353 0.40318 . 0.6467
#End of TTdata_36977-ICSD