
#(C) 2022 by FIZ Karlsruhe - Leibniz Institute for Information Infrastructure.  All rights reserved.
data_89477-ICSD
_database_code_ICSD 89477
_audit_creation_date 2002-04-01
_chemical_name_common 'Manganese niobium(IV) diniobium(III) oxide'
_chemical_formula_structural 'Mn Nb3 O6'
_chemical_formula_sum 'Mn1 Nb3 O6'
_chemical_name_structure_type Ca1-xNb3O6
_exptl_crystal_density_diffrn 6.06
_diffrn_ambient_temperature 298.
_citation_title 'Structure and magnetic susceptibility of Mn Nb3 O6'
loop_
_citation_id
_citation_journal_full
_citation_year
_citation_journal_volume
_citation_page_first
_citation_page_last
_citation_journal_id_ASTM
primary 'Solid State Sciences' 1999 1 567 575 SSSCFJ
loop_
_citation_author_citation_id
_citation_author_name
primary 'Hannerz, H.'
primary 'Svensson, G.'
primary 'Esmaeilzadeh, S.'
primary 'Grins, J.'
_cell_length_a 6.5341
_cell_length_b 7.1057
_cell_length_c 10.142
_cell_angle_alpha 90.
_cell_angle_beta 90.
_cell_angle_gamma 90.
_cell_volume 470.89
_cell_formula_units_Z 4
_space_group_name_H-M_alt 'I m m m'
_space_group_IT_number 71
loop_
_space_group_symop_id
_space_group_symop_operation_xyz
1 'x, y, -z'
2 'x, -y, z'
3 '-x, y, z'
4 '-x, -y, -z'
5 '-x, -y, z'
6 '-x, y, -z'
7 'x, -y, -z'
8 'x, y, z'
9 'x+1/2, y+1/2, -z+1/2'
10 'x+1/2, -y+1/2, z+1/2'
11 '-x+1/2, y+1/2, z+1/2'
12 '-x+1/2, -y+1/2, -z+1/2'
13 '-x+1/2, -y+1/2, z+1/2'
14 '-x+1/2, y+1/2, -z+1/2'
15 'x+1/2, -y+1/2, -z+1/2'
16 'x+1/2, y+1/2, z+1/2'
loop_
_atom_type_symbol
_atom_type_oxidation_number
Mn2+ 2
Nb4+ 4
Nb3+ 3
O2- -2
loop_
_atom_site_label
_atom_site_type_symbol
_atom_site_symmetry_multiplicity
_atom_site_Wyckoff_symbol
_atom_site_fract_x
_atom_site_fract_y
_atom_site_fract_z
_atom_site_B_iso_or_equiv
_atom_site_occupancy
Mn1 Mn2+ 4 e 0.2548 0. 0. . 1.
Nb1 Nb4+ 4 f 0.2002 0.5 0. . 1.
Nb2 Nb3+ 8 l 0. 0.27609 0.22386 . 1.
O1 O2- 4 i 0. 0. 0.1463 . 1.
O2 O2- 4 j 0.5 0. 0.1521 . 1.
O3 O2- 16 o 0.2768 0.3057 0.1342 . 1.
loop_
_atom_site_aniso_label
_atom_site_aniso_type_symbol
_atom_site_aniso_U_11
_atom_site_aniso_U_22
_atom_site_aniso_U_33
_atom_site_aniso_U_12
_atom_site_aniso_U_13
_atom_site_aniso_U_23
Mn1 Mn2+ 0.0251 0.0093 0.0063 0. 0. 0.
Nb1 Nb4+ 0.0014 0.0025 0.0013 0. 0. 0.
Nb2 Nb3+ 0.0038 0.0047 0.0022 0.0006 0. 0.
O1 O2- 0.005 0.008 0.0074 0. 0. 0.
O2 O2- 0.006 0.008 0.009 0. 0. 0.
O3 O2- 0.0069 0.0081 0.004 -0.0038 -0.0006 0.0008
#End of TTdata_89477-ICSD