
#(C) 2022 by FIZ Karlsruhe - Leibniz Institute for Information Infrastructure.  All rights reserved.
data_77707-ICSD
_database_code_ICSD 77707
_audit_creation_date 2003-04-01
_chemical_name_common 'Vanadium oxide (16/3) - supercell'
_chemical_formula_structural 'V16 O3'
_chemical_formula_sum 'O3 V16'
_exptl_crystal_density_diffrn 6.07
_citation_title
'Long range ordering of interstitial oxygen in vanadium near V4 O'
loop_
_citation_id
_citation_journal_full
_citation_year
_citation_journal_volume
_citation_page_first
_citation_page_last
_citation_journal_id_ASTM
primary 'Journal of the Physical Society of Japan' 1973 34 965 972 JUPSAU
loop_
_citation_author_citation_id
_citation_author_name
primary 'Hiraga, K.'
primary 'Hirabayashi, M.'
_cell_length_a 11.96
_cell_length_b 11.96
_cell_length_c 6.604
_cell_angle_alpha 90.
_cell_angle_beta 90.
_cell_angle_gamma 90.
_cell_volume 944.65
_cell_formula_units_Z 4
_space_group_name_H-M_alt 'I 4/m m m'
_space_group_IT_number 139
loop_
_space_group_symop_id
_space_group_symop_operation_xyz
1 'y, x, -z'
2 '-y, -x, -z'
3 '-y, x, -z'
4 'y, -x, -z'
5 '-x, y, -z'
6 'x, -y, -z'
7 'x, y, -z'
8 '-x, -y, -z'
9 '-y, -x, z'
10 'y, x, z'
11 'y, -x, z'
12 '-y, x, z'
13 'x, -y, z'
14 '-x, y, z'
15 '-x, -y, z'
16 'x, y, z'
17 'y+1/2, x+1/2, -z+1/2'
18 '-y+1/2, -x+1/2, -z+1/2'
19 '-y+1/2, x+1/2, -z+1/2'
20 'y+1/2, -x+1/2, -z+1/2'
21 '-x+1/2, y+1/2, -z+1/2'
22 'x+1/2, -y+1/2, -z+1/2'
23 'x+1/2, y+1/2, -z+1/2'
24 '-x+1/2, -y+1/2, -z+1/2'
25 '-y+1/2, -x+1/2, z+1/2'
26 'y+1/2, x+1/2, z+1/2'
27 'y+1/2, -x+1/2, z+1/2'
28 '-y+1/2, x+1/2, z+1/2'
29 'x+1/2, -y+1/2, z+1/2'
30 '-x+1/2, y+1/2, z+1/2'
31 '-x+1/2, -y+1/2, z+1/2'
32 'x+1/2, y+1/2, z+1/2'
loop_
_atom_type_symbol
_atom_type_oxidation_number
V0+ 0.375
O2- -2
loop_
_atom_site_label
_atom_site_type_symbol
_atom_site_symmetry_multiplicity
_atom_site_Wyckoff_symbol
_atom_site_fract_x
_atom_site_fract_y
_atom_site_fract_z
_atom_site_B_iso_or_equiv
_atom_site_occupancy
V1 V0+ 2 a 0. 0. 0. . 1.
V2 V0+ 2 b 0. 0. 0.5 . 1.
V3 V0+ 4 c 0. 0.5 0. . 1.
V4 V0+ 8 h 0.25 0.25 0. . 1.
V5 V0+ 8 i 0.25 0. 0. . 1.
V6 V0+ 8 j 0.25 0.5 0. . 1.
V7 V0+ 16 k 0.125 0.625 0.25 . 1.
V8 V0+ 16 m 0.125 0.125 0.29 . 1.
O1 O2- 4 d 0. 0.5 0.25 . 1.
O2 O2- 8 h 0.125 0.125 0. . 1.
#End of TTdata_77707-ICSD