
#(C) 2022 by FIZ Karlsruhe - Leibniz Institute for Information Infrastructure.  All rights reserved.
data_97442-ICSD
_database_code_ICSD 97442
_audit_creation_date 2004-10-01
_audit_update_record 2006-04-01
_chemical_name_common 'Divanadium(III) oxide - LT'
_chemical_formula_structural 'V2 O3'
_chemical_formula_sum 'O3 V2'
_chemical_name_structure_type V2O3
_exptl_crystal_density_diffrn 4.96
_diffrn_ambient_temperature 10.
_citation_title

;
Effect of doping and temperature on the crystal structure of (V1-x Mox)2 O3
above and below the metal/insulator transition
;
loop_
_citation_id
_citation_journal_full
_citation_year
_citation_journal_volume
_citation_page_first
_citation_page_last
_citation_journal_id_ASTM
primary 'Journal of Solid State Chemistry' 2003 174 431 440 JSSCBI
loop_
_citation_author_citation_id
_citation_author_name
primary 'Tenailleau, C.'
primary 'Suard, E.'
primary 'Rodriguez Carvajal, J.'
primary 'Gibaud, A.'
primary 'Lacorre, P.'
_cell_length_a 8.6138
_cell_length_b 5.0053
_cell_length_c 5.5514
_cell_angle_alpha 90.
_cell_angle_beta 123.011
_cell_angle_gamma 90.
_cell_volume 200.71
_cell_formula_units_Z 4
_space_group_name_H-M_alt 'C 1 2/c 1'
_space_group_IT_number 15
loop_
_space_group_symop_id
_space_group_symop_operation_xyz
1 'x, -y, z+1/2'
2 '-x, -y, -z'
3 '-x, y, -z+1/2'
4 'x, y, z'
5 'x+1/2, -y+1/2, z+1/2'
6 '-x+1/2, -y+1/2, -z'
7 '-x+1/2, y+1/2, -z+1/2'
8 'x+1/2, y+1/2, z'
loop_
_atom_type_symbol
_atom_type_oxidation_number
V3+ 3
O2- -2
loop_
_atom_site_label
_atom_site_type_symbol
_atom_site_symmetry_multiplicity
_atom_site_Wyckoff_symbol
_atom_site_fract_x
_atom_site_fract_y
_atom_site_fract_z
_atom_site_B_iso_or_equiv
_atom_site_occupancy
V1 V3+ 8 f 0.0945 0.2475 0.0444 0.41 1.
O1 O2- 8 f 0.3457 0.0993 0.2416 0.31 1.
O2 O2- 4 e 0. 0.0666 0.25 0.35 1.
#End of TTdata_97442-ICSD