
#(C) 2022 by FIZ Karlsruhe - Leibniz Institute for Information Infrastructure.  All rights reserved.
data_34419-ICSD
_database_code_ICSD 34419
_audit_creation_date 1980-01-01
_audit_update_record 2012-02-01
_chemical_name_common 'Vanadium(IV) oxide - Cr-doped'
_chemical_formula_structural 'V O2'
_chemical_formula_sum 'O2 V1'
_chemical_name_structure_type VO2(oF96)
_exptl_crystal_density_diffrn 4.64
_citation_title 'Structure of Orthorhombic V.95 Cr.05 O2'
loop_
_citation_id
_citation_journal_full
_citation_year
_citation_journal_volume
_citation_page_first
_citation_page_last
_citation_journal_id_ASTM
primary 'Physical Review  B: Solid State' 1972 5 4104 4111 PLRBAQ
loop_
_citation_author_citation_id
_citation_author_name
primary 'Pierce, J.W.'
primary 'Goodenough, J.B.'
_cell_length_a 5.795
_cell_length_b 12.597
_cell_length_c 13.015
_cell_angle_alpha 90.
_cell_angle_beta 90.
_cell_angle_gamma 90.
_cell_volume 950.09
_cell_formula_units_Z 32
_space_group_name_H-M_alt 'F 2 2 2'
_space_group_IT_number 22
loop_
_space_group_symop_id
_space_group_symop_operation_xyz
1 '-x, y, -z'
2 'x, -y, -z'
3 '-x, -y, z'
4 'x, y, z'
5 '-x, y+1/2, -z+1/2'
6 'x, -y+1/2, -z+1/2'
7 '-x, -y+1/2, z+1/2'
8 'x, y+1/2, z+1/2'
9 '-x+1/2, y, -z+1/2'
10 'x+1/2, -y, -z+1/2'
11 '-x+1/2, -y, z+1/2'
12 'x+1/2, y, z+1/2'
13 '-x+1/2, y+1/2, -z'
14 'x+1/2, -y+1/2, -z'
15 '-x+1/2, -y+1/2, z'
16 'x+1/2, y+1/2, z'
loop_
_atom_type_symbol
_atom_type_oxidation_number
V4+ 4
O2- -2
loop_
_atom_site_label
_atom_site_type_symbol
_atom_site_symmetry_multiplicity
_atom_site_Wyckoff_symbol
_atom_site_fract_x
_atom_site_fract_y
_atom_site_fract_z
_atom_site_B_iso_or_equiv
_atom_site_occupancy
V1 V4+ 4 a 0. 0. 0. . 1.
V2 V4+ 4 b 0. 0. 0.5 . 1.
V3 V4+ 8 h 0.25 0.25 0.0218 . 1.
V4 V4+ 8 i 0.25 0.0024 0.25 . 1.
V5 V4+ 8 j 0.0316 0.25 0.25 . 1.
O1 O2- 16 k 0.2325 0.0074 0.102 . 1.
O2 O2- 16 k 0.0089 0.1004 0.2515 . 1.
O3 O2- 8 f 0. 0.1506 0. . 1.
O4 O2- 8 f 0. 0.3533 0. . 1.
O5 O2- 8 h 0.25 0.25 0.1506 . 1.
O6 O2- 8 h 0.25 0.25 0.6473 . 1.
#End of TTdata_34419-ICSD