
#(C) 2022 by FIZ Karlsruhe - Leibniz Institute for Information Infrastructure.  All rights reserved.
data_30005-ICSD
_database_code_ICSD 30005
_audit_creation_date 1980-01-01
_audit_update_record 2011-08-01
_chemical_name_common 'Manganese dimanganese(III) oxide'
_chemical_formula_structural 'Mn3 O4'
_chemical_formula_sum 'Mn3 O4'
_chemical_name_structure_type CaMn2O4
_exptl_crystal_density_diffrn 5.37
_citation_title

;
Pressure diagram of manganese(II,III) oxide and crystal structure of the high
pressure phase of delta-manganese(II,III) oxide
;
loop_
_citation_id
_citation_journal_full
_citation_year
_citation_journal_volume
_citation_page_first
_citation_page_last
_citation_journal_id_ASTM
primary Geokhimiya 1979 1979 254 260 GEOKAQ
loop_
_citation_author_citation_id
_citation_author_name
primary 'Kuznetsov, L.M.'
primary 'Tsvigunov, A.N.'
primary 'Brudina, K.P.'
_cell_length_a 3.026
_cell_length_b 9.769
_cell_length_c 9.568
_cell_angle_alpha 90.
_cell_angle_beta 90.
_cell_angle_gamma 90.
_cell_volume 282.84
_cell_formula_units_Z 4
_space_group_name_H-M_alt 'P b c m'
_space_group_IT_number 57
loop_
_space_group_symop_id
_space_group_symop_operation_xyz
1 'x, -y+1/2, z+1/2'
2 '-x, y+1/2, z'
3 'x, y, -z+1/2'
4 '-x, -y, -z'
5 '-x, y+1/2, -z+1/2'
6 'x, -y+1/2, -z'
7 '-x, -y, z+1/2'
8 'x, y, z'
loop_
_atom_type_symbol
_atom_type_oxidation_number
Mn2+ 2
Mn3+ 3
O2- -2
loop_
_atom_site_label
_atom_site_type_symbol
_atom_site_symmetry_multiplicity
_atom_site_Wyckoff_symbol
_atom_site_fract_x
_atom_site_fract_y
_atom_site_fract_z
_atom_site_B_iso_or_equiv
_atom_site_occupancy
Mn1 Mn2+ 4 d 0.6832 0.1453 0.25 . 1.
Mn2 Mn3+ 8 e 0.2055 0.3859 0.0694 . 1.
O1 O2- 4 c 0.612 0.25 0. . 1.
O2 O2- 4 d 0.185 0.303 0.25 . 1.
O3 O2- 8 e 0.205 0.028 0.111 . 1.
loop_
_atom_site_aniso_label
_atom_site_aniso_type_symbol
_atom_site_aniso_beta_11
_atom_site_aniso_beta_22
_atom_site_aniso_beta_33
_atom_site_aniso_beta_12
_atom_site_aniso_beta_13
_atom_site_aniso_beta_23
Mn1 Mn2+ 0.025 0.0036 0.0027 0.0025 0. 0.
Mn2 Mn3+ 0.029 0.0032 0.0018 -0.0028 -0.0002 0.0009
O1 O2- 0.038 0.004 0.0068 0. 0.0003 0.
O2 O2- 0.052 0.0027 0.007 -0.0003 0. 0.
O3 O2- 0.047 0.0038 0.0038 -0.0003 0.0012 0.0016
#End of TTdata_30005-ICSD