
#(C) 2022 by FIZ Karlsruhe - Leibniz Institute for Information Infrastructure.  All rights reserved.
data_27133-ICSD
_database_code_ICSD 27133
_audit_creation_date 1980-01-01
_audit_update_record 2005-10-01
_chemical_name_common 'Tetramanganese diniobate - HT'
_chemical_formula_structural 'Mn4 (Nb2 O9)'
_chemical_formula_sum 'Mn4 Nb2 O9'
_chemical_name_structure_type Co4(Nb2O9)
_exptl_crystal_density_diffrn 5.55
_citation_title

;
Structure cristallographique et magnetique de niobates et tantalates de metaux
de transition bivalents.
;
loop_
_citation_id
_citation_journal_full
_citation_year
_citation_journal_volume
_citation_page_first
_citation_page_last
_citation_journal_id_ASTM
primary 'Comptes Rendus Hebdomadaires des Seances de l'Academie des Sciences'
1960 251 1733 1735 COREAF
loop_
_citation_author_citation_id
_citation_author_name
primary 'Bertaut, E.F.'
primary 'Corliss, L.M.'
primary 'Forrat, F.'
_cell_length_a 5.177
_cell_length_b 5.177
_cell_length_c 14.168
_cell_angle_alpha 90.
_cell_angle_beta 90.
_cell_angle_gamma 120.
_cell_volume 328.85
_cell_formula_units_Z 2
_space_group_name_H-M_alt 'P -3 c 1'
_space_group_IT_number 165
loop_
_space_group_symop_id
_space_group_symop_operation_xyz
1 'x-y, -y, -z+1/2'
2 '-x, -x+y, -z+1/2'
3 'y, x, -z+1/2'
4 'x-y, x, -z'
5 'y, -x+y, -z'
6 '-x, -y, -z'
7 '-x+y, y, z+1/2'
8 'x, x-y, z+1/2'
9 '-y, -x, z+1/2'
10 '-x+y, -x, z'
11 '-y, x-y, z'
12 'x, y, z'
loop_
_atom_type_symbol
_atom_type_oxidation_number
Nb5+ 5
Mn2+ 2
O2- -2
loop_
_atom_site_label
_atom_site_type_symbol
_atom_site_symmetry_multiplicity
_atom_site_Wyckoff_symbol
_atom_site_fract_x
_atom_site_fract_y
_atom_site_fract_z
_atom_site_B_iso_or_equiv
_atom_site_occupancy
Nb1 Nb5+ 4 c 0. 0. 0.1425 . 1.
Mn1 Mn2+ 4 d 0.33333 0.66667 0.0181 . 1.
Mn2 Mn2+ 4 d 0.33333 0.66667 0.297 . 1.
O1 O2- 6 f 0.3 0. 0.25 . 1.
O2 O2- 12 g 0.334 0.295 0.084 . 1.
#End of TTdata_27133-ICSD