
#(C) 2022 by FIZ Karlsruhe - Leibniz Institute for Information Infrastructure.  All rights reserved.
data_160157-ICSD
_database_code_ICSD 160157
_audit_creation_date 2008-08-01
_chemical_name_common 'Niobium oxide (12/29) - o'
_chemical_formula_structural 'Nb12 O29'
_chemical_formula_sum 'Nb12 O29'
_chemical_name_structure_type Nb12O29(HT)
_exptl_crystal_density_diffrn 4.57
_diffrn_ambient_temperature 200.
_citation_title 'Structures of the reduced niobium oxides Nb12 O29 and Nb22 O54'
loop_
_citation_id
_citation_journal_full
_citation_year
_citation_journal_volume
_citation_page_first
_citation_page_last
_citation_journal_id_ASTM
primary 'Journal of Solid State Chemistry' 2007 180 2864 2870 JSSCBI
loop_
_citation_author_citation_id
_citation_author_name
primary 'McQueen, T.'
primary 'Xu, Q.'
primary 'Andersen, E.N.'
primary 'Zandbergen, H.W.'
primary 'Cava, R.J.'
_cell_length_a 3.832
_cell_length_b 20.74
_cell_length_c 28.8901
_cell_angle_alpha 90.
_cell_angle_beta 90.
_cell_angle_gamma 90.
_cell_volume 2296.06
_cell_formula_units_Z 4
_space_group_name_H-M_alt 'C m c m'
_space_group_IT_number 63
loop_
_space_group_symop_id
_space_group_symop_operation_xyz
1 '-x, y, -z+1/2'
2 '-x, -y, z+1/2'
3 '-x, y, z'
4 '-x, -y, -z'
5 'x, -y, z+1/2'
6 'x, y, -z+1/2'
7 'x, -y, -z'
8 'x, y, z'
9 '-x+1/2, y+1/2, -z+1/2'
10 '-x+1/2, -y+1/2, z+1/2'
11 '-x+1/2, y+1/2, z'
12 '-x+1/2, -y+1/2, -z'
13 'x+1/2, -y+1/2, z+1/2'
14 'x+1/2, y+1/2, -z+1/2'
15 'x+1/2, -y+1/2, -z'
16 'x+1/2, y+1/2, z'
loop_
_atom_type_symbol
_atom_type_oxidation_number
Nb4+ 4.83
O2- -2
loop_
_atom_site_label
_atom_site_type_symbol
_atom_site_symmetry_multiplicity
_atom_site_Wyckoff_symbol
_atom_site_fract_x
_atom_site_fract_y
_atom_site_fract_z
_atom_site_B_iso_or_equiv
_atom_site_occupancy
Nb1 Nb4+ 8 f 0. 0.53762 0.04992 . 1.
Nb2 Nb4+ 8 f 0. 0.35243 0.04832 . 1.
Nb3 Nb4+ 8 f 0. 0.16885 0.04939 . 1.
Nb4 Nb4+ 8 f 0. 0.1684 0.184 . 1.
Nb5 Nb4+ 8 f 0. 0.35221 0.1844 . 1.
Nb6 Nb4+ 8 f 0. 0.53584 0.1847 . 1.
O1 O2- 8 f 0. 0.3562 0.5354 . 1.
O2 O2- 8 f 0. 0.0615 0.0431 . 1.
O3 O2- 8 f 0. 0.4509 0.0298 . 1.
O4 O2- 8 f 0. 0.5345 0.1115 . 1.
O5 O2- 8 f 0. 0.1502 0.5284 . 1.
O6 O2- 8 f 0. 0.2564 0.0414 . 1.
O7 O2- 8 f 0. 0.3582 0.1091 . 1.
O8 O2- 8 f 0. 0.1627 0.1113 . 1.
O9 O2- 8 f 0. 0.6424 0.1791 . 1.
O10 O2- 8 f 0. 0.0597 0.1799 . 1.
O11 O2- 4 c 0. 0.1653 0.25 . 1.
O12 O2- 8 f 0. 0.2566 0.1786 . 1.
O13 O2- 8 f 0. 0.1488 0.6758 . 1.
O14 O2- 4 c 0. 0.3497 0.25 . 1.
O15 O2- 8 f 0. 0.4488 0.1838 . 1.
O16 O2- 4 c 0. 0.5432 0.25 . 1.
loop_
_atom_site_aniso_label
_atom_site_aniso_type_symbol
_atom_site_aniso_U_11
_atom_site_aniso_U_22
_atom_site_aniso_U_33
_atom_site_aniso_U_12
_atom_site_aniso_U_13
_atom_site_aniso_U_23
Nb1 Nb4+ 0.007 0.0066 0.0061 0.0002 0. 0.
Nb2 Nb4+ 0.0067 0.0059 0.0054 -0.0002 0. 0.
Nb3 Nb4+ 0.004 0.0057 0.0058 0.0007 0. 0.
Nb4 Nb4+ 0.0019 0.0032 0.0075 0.0002 0. 0.
Nb5 Nb4+ 0.0391 0.0056 0.0061 0.0006 0. 0.
Nb6 Nb4+ 0.0067 0.0054 0.0063 0. 0. 0.
O1 O2- 0.005 0.005 0.007 0.0008 0. 0.
O2 O2- 0.009 0.005 0.017 0.003 0. 0.
O3 O2- 0.007 0.009 0.011 0. 0. 0.
O4 O2- 0.01 0.011 0.007 0.003 0. 0.
O5 O2- 0.008 0.011 0.006 0.001 0. 0.
O6 O2- 0.012 0.008 0.012 -0.001 0. 0.
O7 O2- 0.014 0.006 0.013 0.004 0. 0.
O8 O2- 0.011 0.012 0.008 0.001 0. 0.
O9 O2- 0.006 0.006 0.007 0.0002 0. 0.
O10 O2- 0.003 0.004 0.005 0.0011 0. 0.
O11 O2- 0.003 0.004 0.004 0. 0. 0.
O12 O2- 0.019 0.017 0.018 0.0002 0. 0.
O13 O2- 0.013 0.015 0.015 -0.0004 0. 0.
O14 O2- 0.011 0.01 0.01 0. 0. 0.
O15 O2- 0.007 0.008 0.013 0. 0. 0.
O16 O2- 0.026 0.011 0.005 0. 0. 0.
#End of TTdata_160157-ICSD