
#(C) 2022 by FIZ Karlsruhe - Leibniz Institute for Information Infrastructure.  All rights reserved.
data_34425-ICSD
_database_code_ICSD 34425
_audit_creation_date 1980-01-01
_audit_update_record 2006-04-01
_chemical_name_common 'Niobium(IV) oxide'
_chemical_formula_structural 'Nb O2'
_chemical_formula_sum 'Nb1 O2'
_chemical_name_structure_type NbO2
_exptl_crystal_density_diffrn 5.96
_citation_title 'Structural distortions in the low-temperature phase of Nb O2'
loop_
_citation_id
_citation_journal_full
_citation_year
_citation_journal_volume
_citation_page_first
_citation_page_last
_citation_journal_id_ASTM
primary 'Physical Review  B: Solid State' 1976 13 2965 2975 PLRBAQ
loop_
_citation_author_citation_id
_citation_author_name
primary 'Pynn, R.'
primary 'Axe, J.D.'
primary 'Thomas, R.'
_cell_length_a 13.66
_cell_length_b 13.66
_cell_length_c 5.964
_cell_angle_alpha 90.
_cell_angle_beta 90.
_cell_angle_gamma 90.
_cell_volume 1112.86
_cell_formula_units_Z 32
_space_group_name_H-M_alt 'I 41/a Z'
_space_group_IT_number 88
loop_
_space_group_symop_id
_space_group_symop_operation_xyz
1 '-y+3/4, x+3/4, -z+3/4'
2 'y+1/4, -x+3/4, -z+3/4'
3 'x, y+1/2, -z'
4 '-x, -y, -z'
5 'y+1/4, -x+1/4, z+1/4'
6 '-y+3/4, x+1/4, z+1/4'
7 '-x, -y+1/2, z'
8 'x, y, z'
9 '-y+1/4, x+1/4, -z+1/4'
10 'y+3/4, -x+1/4, -z+1/4'
11 'x+1/2, y, -z+1/2'
12 '-x+1/2, -y+1/2, -z+1/2'
13 'y+3/4, -x+3/4, z+3/4'
14 '-y+1/4, x+3/4, z+3/4'
15 '-x+1/2, -y, z+1/2'
16 'x+1/2, y+1/2, z+1/2'
loop_
_atom_type_symbol
_atom_type_oxidation_number
Nb4+ 4
O2- -2
loop_
_atom_site_label
_atom_site_type_symbol
_atom_site_symmetry_multiplicity
_atom_site_Wyckoff_symbol
_atom_site_fract_x
_atom_site_fract_y
_atom_site_fract_z
_atom_site_B_iso_or_equiv
_atom_site_occupancy
Nb1 Nb4+ 16 f 0.125 0.1351 0.2751 . 1.
Nb2 Nb4+ 16 f 0.1362 0.3749 0.5268 . 1.
O1 O2- 16 f 0.0127 0.1285 0.4955 . 1.
O2 O2- 16 f 0.0253 0.1271 0.0003 . 1.
O3 O2- 16 f 0.2261 0.1225 0.0007 . 1.
O4 O2- 16 f 0.2629 0.378 0.005 . 1.
loop_
_atom_site_aniso_label
_atom_site_aniso_type_symbol
_atom_site_aniso_beta_11
_atom_site_aniso_beta_22
_atom_site_aniso_beta_33
_atom_site_aniso_beta_12
_atom_site_aniso_beta_13
_atom_site_aniso_beta_23
Nb1 Nb4+ 0.0015 0.0022 0.0109 0.0002 -0.0008 0.0005
Nb2 Nb4+ 0.0007 0.0032 0.0097 0.0001 0.0002 -0.001
O1 O2- 0.0022 0.003 0.011 -0.0005 -0.0002 -0.0002
O2 O2- 0.0029 0.002 0.0146 -0.0008 0.0002 0.0008
O3 O2- 0.003 0.0022 0.0107 -0.0005 0. -0.0013
O4 O2- 0.0031 0.0017 0.0066 0.0001 -0.0006 0.0012
#End of TTdata_34425-ICSD