
#(C) 2022 by FIZ Karlsruhe - Leibniz Institute for Information Infrastructure.  All rights reserved.
data_29-ICSD
_database_code_ICSD 29
_audit_creation_date 1980-01-01
_audit_update_record 2008-02-01
_chemical_name_common 'Niobium oxide'
_chemical_formula_structural 'Nb2 O5'
_chemical_formula_sum 'Nb2 O5'
_exptl_crystal_density_diffrn 4.55
_citation_title 'Structure refinement of h-Nb2 O5'
loop_
_citation_id
_citation_journal_full
_citation_year
_citation_journal_volume
_citation_page_first
_citation_page_last
_citation_journal_id_ASTM
primary

;
Acta Crystallographica, Section B: Structural Crystallography and Crystal
Chemistry
; 1976 32 764 767 ACBCAR
loop_
_citation_author_citation_id
_citation_author_name
primary 'Kato, K.'
_cell_length_a 19.356
_cell_length_b 3.8233
_cell_length_c 20.3751
_cell_angle_alpha 90.
_cell_angle_beta 115.724
_cell_angle_gamma 90.
_cell_volume 1358.4
_cell_formula_units_Z 14
_space_group_name_H-M_alt 'P 1 2/m 1'
_space_group_IT_number 10
loop_
_space_group_symop_id
_space_group_symop_operation_xyz
1 '-x, y, -z'
2 '-x, -y, -z'
3 'x, -y, z'
4 'x, y, z'
loop_
_atom_type_symbol
_atom_type_oxidation_number
Nb5+ 5
O2- -2
loop_
_atom_site_label
_atom_site_type_symbol
_atom_site_symmetry_multiplicity
_atom_site_Wyckoff_symbol
_atom_site_fract_x
_atom_site_fract_y
_atom_site_fract_z
_atom_site_B_iso_or_equiv
_atom_site_occupancy
Nb1 Nb5+ 2 k 0. 0.2285 0.5 . 0.5
Nb2 Nb5+ 1 a 0. 0. 0. . 1.
Nb3 Nb5+ 2 m 0.16077 0. 0.6643 . 1.
Nb4 Nb5+ 2 m 0.00489 0. 0.73623 . 1.
Nb5 Nb5+ 2 m 0.15172 0. 0.19716 . 1.
Nb6 Nb5+ 2 m 0.68466 0. 0.13913 . 1.
Nb7 Nb5+ 2 m 0.84416 0. 0.06675 . 1.
Nb8 Nb5+ 2 m 0.46924 0. 0.0627 . 1.
Nb9 Nb5+ 2 m 0.30724 0. 0.12943 . 1.
Nb10 Nb5+ 2 n 0.10834 0.5 0.40647 . 1.
Nb11 Nb5+ 2 n 0.26489 0.5 0.34079 . 1.
Nb12 Nb5+ 2 n 0.57916 0.5 0.2033 . 1.
Nb13 Nb5+ 2 n 0.41905 0.5 0.27056 . 1.
Nb14 Nb5+ 2 n 0.26458 0.5 0.60105 . 1.
Nb15 Nb5+ 2 n 0.42467 0.5 0.53539 . 1.
O1 O2- 1 h 0.5 0.5 0.5 1.16 1.
O2 O2- 1 b 0. 0.5 0. 1.26 1.
O3 O2- 2 m 0.0832 0. 0.382 0.56 1.
O4 O2- 2 m 0.2447 0. 0.3133 0.45 1.
O5 O2- 2 m 0.0864 0. 0.6931 0.7 1.
O6 O2- 2 m 0.0756 0. 0.2361 0.75 1.
O7 O2- 2 m 0.752 0. 0.2381 0.73 1.
O8 O2- 2 m 0.084 0. 0.8257 0.92 1.
O9 O2- 2 m 0.0819 0. 0.1029 0.93 1.
O10 O2- 2 m 0.7465 0. 0.0968 0.74 1.
O11 O2- 2 m 0.9209 0. 0.0376 1.07 1.
O12 O2- 2 m 0.5771 0. 0.0389 0.4 1.
O13 O2- 2 m 0.239 0. 0.0344 0.85 1.
O14 O2- 2 m 0.3939 0. 0.0898 0.63 1.
O15 O2- 2 m 0.2395 0. 0.1701 0.65 1.
O16 O2- 2 m 0.5746 0. 0.1707 0.36 1.
O17 O2- 2 m 0.4054 0. 0.2411 0.46 1.
O18 O2- 2 m 0.2483 0. 0.6142 0.49 1.
O19 O2- 2 m 0.0891 0. 0.5588 0.68 1.
O20 O2- 2 m 0.416 0. 0.5362 0.97 1.
O21 O2- 2 n 0.0229 0.5 0.4392 0.91 1.
O22 O2- 2 n 0.3383 0.5 0.4332 0.89 1.
O23 O2- 2 n 0.1795 0.5 0.3673 0.67 1.
O24 O2- 2 n 0.0122 0.5 0.2938 0.45 1.
O25 O2- 2 n 0.174 0.5 0.2236 0.44 1.
O26 O2- 2 n 0.6562 0.5 0.1449 0.44 1.
O27 O2- 2 n 0.8341 0.5 0.0725 0.87 1.
O28 O2- 2 n 0.4971 0.5 0.0855 0.44 1.
O29 O2- 2 n 0.3359 0.5 0.1535 0.39 1.
O30 O2- 2 n 0.5006 0.5 0.2263 0.69 1.
O31 O2- 2 n 0.341 0.5 0.2987 0.78 1.
O32 O2- 2 n 0.6599 0.5 0.2917 0.73 1.
O33 O2- 2 n 0.4999 0.5 0.3613 0.95 1.
O34 O2- 2 n 0.1809 0.5 0.6526 0.46 1.
O35 O2- 2 n 0.3384 0.5 0.572 0.83 1.
O36 O2- 2 n 0.1791 0.5 0.5029 0.72 1.
loop_
_atom_site_aniso_label
_atom_site_aniso_type_symbol
_atom_site_aniso_beta_11
_atom_site_aniso_beta_22
_atom_site_aniso_beta_33
_atom_site_aniso_beta_12
_atom_site_aniso_beta_13
_atom_site_aniso_beta_23
Nb1 Nb5+ 0.00037 0.0257 0.00052 0.00025 0. 0.
Nb2 Nb5+ 0.00048 0.0469 0.00077 0.0003 0. 0.
Nb3 Nb5+ 0.00042 0.0105 0.0004 0.00019 0. 0.
Nb4 Nb5+ 0.00031 0.0096 0.0006 0.0002 0. 0.
Nb5 Nb5+ 0.00037 0.0088 0.00079 0.0003 0. 0.
Nb6 Nb5+ 0.00039 0.0068 0.0004 0.0002 0. 0.
Nb7 Nb5+ 0.00043 0.0471 0.00052 0.00023 0. 0.
Nb8 Nb5+ 0.00031 0.0068 0.00038 0.00016 0. 0.
Nb9 Nb5+ 0.00037 0.008 0.00055 0.00025 0. 0.
Nb10 Nb5+ 0.00038 0.0114 0.00063 0.00028 0. 0.
Nb11 Nb5+ 0.00036 0.0085 0.00077 0.00029 0. 0.
Nb12 Nb5+ 0.0003 0.0069 0.00039 0.00015 0. 0.
Nb13 Nb5+ 0.00033 0.0086 0.00052 0.00019 0. 0.
Nb14 Nb5+ 0.00038 0.0101 0.00037 0.00017 0. 0.
Nb15 Nb5+ 0.00047 0.0541 0.00055 0.00027 0. 0.
#End of TTdata_29-ICSD