
#(C) 2022 by FIZ Karlsruhe - Leibniz Institute for Information Infrastructure.  All rights reserved.
data_34416-ICSD
_database_code_ICSD 34416
_audit_creation_date 1980-01-01
_audit_update_record 2003-04-01
_chemical_name_common 'Vanadium(IV) oxide - doped with chromium'
_chemical_formula_structural 'V O2'
_chemical_formula_sum 'O2 V1'
_chemical_name_structure_type CrPS4
_exptl_crystal_density_diffrn 4.63
_diffrn_ambient_temperature 298.
_citation_title
'Structural aspects of the metal-insulator transition in Cr-doped V O2'
loop_
_citation_id
_citation_journal_full
_citation_year
_citation_journal_volume
_citation_page_first
_citation_page_last
_citation_journal_id_ASTM
primary 'Physical Review  B: Solid State' 1972 5 2541 2551 PLRBAQ
loop_
_citation_author_citation_id
_citation_author_name
primary 'Marezio, M.'
primary 'McWhan, D.B.'
primary 'Remeika, J.P.'
primary 'Dernier, P.D.'
_cell_length_a 9.0664
_cell_length_b 5.797
_cell_length_c 4.5255
_cell_angle_alpha 90.
_cell_angle_beta 91.88
_cell_angle_gamma 90.
_cell_volume 237.72
_cell_formula_units_Z 8
_space_group_name_H-M_alt 'C 1 2/m 1'
_space_group_IT_number 12
loop_
_space_group_symop_id
_space_group_symop_operation_xyz
1 '-x, y, -z'
2 '-x, -y, -z'
3 'x, -y, z'
4 'x, y, z'
5 '-x+1/2, y+1/2, -z'
6 '-x+1/2, -y+1/2, -z'
7 'x+1/2, -y+1/2, z'
8 'x+1/2, y+1/2, z'
loop_
_atom_type_symbol
_atom_type_oxidation_number
V4+ 4
O2- -2
loop_
_atom_site_label
_atom_site_type_symbol
_atom_site_symmetry_multiplicity
_atom_site_Wyckoff_symbol
_atom_site_fract_x
_atom_site_fract_y
_atom_site_fract_z
_atom_site_B_iso_or_equiv
_atom_site_occupancy
V1 V4+ 4 h 0. 0.2811 0.5 . 1.
V2 V4+ 4 i 0.2314 0. 0.0312 . 1.
O1 O2- 8 j 0.3518 0.2525 0.2058 . 1.
O2 O2- 4 i 0.6031 0. 0.2911 . 1.
O3 O2- 4 i 0.1 0. 0.2987 . 1.
loop_
_atom_site_aniso_label
_atom_site_aniso_type_symbol
_atom_site_aniso_beta_11
_atom_site_aniso_beta_22
_atom_site_aniso_beta_33
_atom_site_aniso_beta_12
_atom_site_aniso_beta_13
_atom_site_aniso_beta_23
V1 V4+ 0.00124 0.0038 0.0052 0. 0.00066 0.
V2 V4+ 0.00095 0.0038 0.0042 0. 0.00017 0.
O1 O2- 0.0015 0.0014 0.0044 -0.0001 -0.0003 0.0005
O2 O2- 0.0014 0.0017 0.0054 0. 0.0008 0.
O3 O2- 0.0014 0.0015 0.0047 0. 0.0009 0.
#End of TTdata_34416-ICSD