
#(C) 2022 by FIZ Karlsruhe - Leibniz Institute for Information Infrastructure.  All rights reserved.
data_259897-ICSD
_database_code_ICSD 259897
_audit_creation_date 2019-02-01
_chemical_name_common 'Vanadium oxide (6/11)'
_chemical_formula_structural 'V6 O11'
_chemical_formula_sum 'O11 V6'
_exptl_crystal_density_diffrn 4.72
_citation_title

;
Spark plasma sintering (SPS)-assisted synthesis and thermoelectric
characterization of Magneli phase V6O11
;
loop_
_citation_id
_citation_journal_full
_citation_year
_citation_journal_volume
_citation_page_first
_citation_page_last
_citation_journal_id_ASTM
primary 'Inorganic Chemistry' 2018 57 1259 1268 INOCAJ
loop_
_citation_author_citation_id
_citation_author_name
primary 'Joos, Markus'
primary 'Cerretti, Giacomo'
primary 'Veremchuk, Igor'
primary 'Hofmann, Patrick'
primary 'Frerichs, Hajo'
primary 'Anjum, Dalaver H.'
primary 'Reich, Tobias'
primary 'Lieberwirth, Ingo'
primary 'Panthoefer, Martin'
primary 'Zeier, Wolfgang G.'
primary 'Tremel, Wolfgang'
_cell_length_a 5.4478
_cell_length_b 7.0059
_cell_length_c 9.5671
_cell_angle_alpha 90.014
_cell_angle_beta 100.573
_cell_angle_gamma 108.901
_cell_volume 338.89
_cell_formula_units_Z 2
_space_group_name_H-M_alt 'P -1'
_space_group_IT_number 2
loop_
_space_group_symop_id
_space_group_symop_operation_xyz
1 '-x, -y, -z'
2 'x, y, z'
loop_
_atom_type_symbol
_atom_type_oxidation_number
V3+ 3.667
O2- -2
loop_
_atom_site_label
_atom_site_type_symbol
_atom_site_symmetry_multiplicity
_atom_site_Wyckoff_symbol
_atom_site_fract_x
_atom_site_fract_y
_atom_site_fract_z
_atom_site_B_iso_or_equiv
_atom_site_occupancy
V1 V3+ 2 i 0.3087 0.0752 0.74214 0.127 1.
V2 V3+ 2 i 0.2246 0.1358 0.0807 0.127 1.
V3 V3+ 2 i 0.1739 0.6952 0.4332 0.127 1.
V4 V3+ 2 i 0.1787 0.1984 0.4369 0.127 1.
V5 V3+ 2 i 0.2308 0.6381 0.088 0.127 1.
V6 V3+ 2 i 0.6873 0.42 0.25792 0.127 1.
O1 O2- 2 i 0.3314 0.7562 0.2878 0.169 1.
O2 O2- 2 i 0.5204 0.3239 0.4306 0.169 1.
O3 O2- 2 i 0.8719 0.4817 0.1097 0.169 1.
O4 O2- 2 i 0.0973 0.8574 0.0277 0.169 1.
O5 O2- 2 i 0.7829 0.0393 0.4632 0.169 1.
O6 O2- 2 i 0.3563 0.4247 0.1528 0.169 1.
O7 O2- 2 i 0.5637 0.137 0.1994 0.169 1.
O8 O2- 2 i 0.5948 0.8017 0.0743 0.169 1.
O9 O2- 2 i 0.0125 0.404 0.3894 0.169 1.
O10 O2- 2 i 0.1946 0.3042 0.6489 0.169 1.
O11 O2- 2 i 0.0556 0.0705 0.2546 0.169 1.
#End of TTdata_259897-ICSD