
#(C) 2022 by FIZ Karlsruhe - Leibniz Institute for Information Infrastructure.  All rights reserved.
data_153176-ICSD
_database_code_ICSD 153176
_audit_creation_date 2006-10-01
_chemical_name_common 'Bismuth dicopper vanadium oxide - beta'
_chemical_formula_structural 'Bi Cu2 V O6'
_chemical_formula_sum 'Bi1 Cu2 O6 V1'
_exptl_crystal_density_diffrn 6.11
_diffrn_ambient_temperature 500.
_citation_title
'Phase transition, thermal expansion and electrical properties of Bi Cu2 V O6'
loop_
_citation_id
_citation_journal_full
_citation_year
_citation_journal_volume
_citation_page_first
_citation_page_last
_citation_journal_id_ASTM
primary 'Journal of Solid State Chemistry' 2005 178 2927 2933 JSSCBI
loop_
_citation_author_citation_id
_citation_author_name
primary 'Radosavljevic Evans, I.'
primary 'Tao Shanwen'
primary 'Irvine, J.T.S.'
_cell_length_a 16.4372
_cell_length_b 7.883
_cell_length_c 13.585
_cell_angle_alpha 90.
_cell_angle_beta 116.593
_cell_angle_gamma 90.
_cell_volume 1574.05
_cell_formula_units_Z 12
_space_group_name_H-M_alt 'C 1 2/m 1'
_space_group_IT_number 12
loop_
_space_group_symop_id
_space_group_symop_operation_xyz
1 '-x, y, -z'
2 '-x, -y, -z'
3 'x, -y, z'
4 'x, y, z'
5 '-x+1/2, y+1/2, -z'
6 '-x+1/2, -y+1/2, -z'
7 'x+1/2, -y+1/2, z'
8 'x+1/2, y+1/2, z'
loop_
_atom_type_symbol
_atom_type_oxidation_number
Bi3+ 3
Cu2+ 2
V5+ 5
O2- -2
loop_
_atom_site_label
_atom_site_type_symbol
_atom_site_symmetry_multiplicity
_atom_site_Wyckoff_symbol
_atom_site_fract_x
_atom_site_fract_y
_atom_site_fract_z
_atom_site_U_iso_or_equiv
_atom_site_occupancy
Bi1 Bi3+ 4 i 0.21246 0. 0.33341 0.0169 1.
Bi2 Bi3+ 4 i 0.11951 0. 0.03169 0.0157 1.
Bi3 Bi3+ 4 i 0.43905 0. 0.3469 0.0165 1.
Cu1 Cu2+ 8 j 0.10287 0.1808 0.52241 0.0156 1.
Cu2 Cu2+ 8 j 0.26362 0.2985 0.20169 0.0214 1.
Cu3 Cu2+ 8 j 0.05448 0.3156 0.13674 0.0176 1.
V1 V5+ 4 i 0.0401 0. 0.7299 0.0222 1.
V2 V5+ 4 i 0.34622 0. 0.03862 0.0137 1.
V3 V5+ 4 i 0.3154 0. 0.6241 0.0184 1.
O1 O2- 8 j 0.3292 0.1761 0.3435 0.0166 1.
O2 O2- 4 g 0. 0.1744 0. 0.012 1.
O3 O2- 4 i 0.1599 0. 0.7672 0.0212 1.
O4 O2- 4 h 0. 0.3259 0.5 0.0143 1.
O5 O2- 4 i 0.6367 0. 0.2301 0.0235 1.
O6 O2- 8 j 0.1576 0.1616 0.1845 0.0165 1.
O7 O2- 4 i 0.4664 0. 0.0892 0.0279 1.
O8 O2- 8 j 0.1952 0.3265 0.0427 0.0236 1.
O9 O2- 4 i 0.3139 0. 0.1431 0.0295 1.
O10 O2- 4 i 0.0268 0. 0.4138 0.0262 1.
O11 O2- 4 i 0.1944 0. 0.5652 0.0204 1.
O12 O2- 8 j 0.4789 0.329 0.2168 0.111 1.
O13 O2- 8 j 0.1533 0.323 0.4151 0.0824 1.
#End of TTdata_153176-ICSD