
#(C) 2022 by FIZ Karlsruhe - Leibniz Institute for Information Infrastructure.  All rights reserved.
data_12104-ICSD
_database_code_ICSD 12104
_audit_creation_date 1980-01-01
_audit_update_record 2000-07-15
_chemical_name_common 'Copper tetraoxodibismuthate(III)'
_chemical_formula_structural 'Cu Bi2 O4'
_chemical_formula_sum 'Bi2 Cu1 O4'
_exptl_crystal_density_diffrn 8.66
_citation_title

;
Isolierte quadratisch planare (Cu O4)6- -Polyeder in Cu Bi2 O4, ein neuer
Bautyp zur Formel (Me3+)2 M2+ O4
;
loop_
_citation_id
_citation_journal_full
_citation_year
_citation_journal_volume
_citation_page_first
_citation_page_last
_citation_journal_id_ASTM
primary 'Zeitschrift fuer Anorganische und Allgemeine Chemie (1950) (DE)' 1976
426 1 6 ZAACAB
loop_
_citation_author_citation_id
_citation_author_name
primary 'Arpe, R.'
primary 'Mueller Buschbaum, H.'
_cell_length_a 8.484
_cell_length_b 8.484
_cell_length_c 5.813
_cell_angle_alpha 90.
_cell_angle_beta 90.
_cell_angle_gamma 90.
_cell_volume 418.41
_cell_formula_units_Z 4
_space_group_name_H-M_alt 'I 4'
_space_group_IT_number 79
loop_
_space_group_symop_id
_space_group_symop_operation_xyz
1 'y, -x, z'
2 '-y, x, z'
3 '-x, -y, z'
4 'x, y, z'
5 'y+1/2, -x+1/2, z+1/2'
6 '-y+1/2, x+1/2, z+1/2'
7 '-x+1/2, -y+1/2, z+1/2'
8 'x+1/2, y+1/2, z+1/2'
loop_
_atom_type_symbol
_atom_type_oxidation_number
Cu2+ 2
Bi3+ 3
O2- -2
loop_
_atom_site_label
_atom_site_type_symbol
_atom_site_symmetry_multiplicity
_atom_site_Wyckoff_symbol
_atom_site_fract_x
_atom_site_fract_y
_atom_site_fract_z
_atom_site_B_iso_or_equiv
_atom_site_occupancy
Cu1 Cu2+ 2 a 0. 0. 0.1763 0.17 1.
Cu2 Cu2+ 2 a 0. 0. 0.671 0.05 1.
Bi1 Bi3+ 8 c 0.3316 0.1683 0. 0.15 1.
O1 O2- 8 c 0.297 0.402 0.154 0.49 1.
O2 O2- 8 c 0.101 0.202 0.161 0.61 1.
#End of TTdata_12104-ICSD