
#(C) 2022 by FIZ Karlsruhe - Leibniz Institute for Information Infrastructure.  All rights reserved.
data_418370-ICSD
_database_code_ICSD 418370
_audit_creation_date 2009-02-01
_chemical_name_common 'Bismuth vanadium oxide (24/4.67/46.67)'
_chemical_formula_structural 'Bi23 V4 O44'
_chemical_formula_sum 'Bi23 O44 V4'
_exptl_crystal_density_diffrn 8.3
_diffrn_ambient_temperature 293.
_citation_title

;
(M Bi)46 V8 O(y)-family type (M = Pb, Sr, Ca, Cd, Na0.5 Bi0.5): syntheses,
crystal structures and conductivity properties
;
loop_
_citation_id
_citation_journal_full
_citation_year
_citation_journal_volume
_citation_page_first
_citation_page_last
_citation_journal_id_ASTM
primary 'Solid State Sciences' 2008 10 1074 1082 SSSCFJ
loop_
_citation_author_citation_id
_citation_author_name
primary 'Labidi, O.'
primary 'Drache, M.'
primary 'Roussel, P.'
primary 'Wignacourt, J.P.'
_cell_length_a 20.0874
_cell_length_b 11.6841
_cell_length_c 29.5629
_cell_angle_alpha 90.
_cell_angle_beta 98.816
_cell_angle_gamma 90.
_cell_volume 6856.53
_cell_formula_units_Z 6
_space_group_name_H-M_alt 'C 1 2/m 1'
_space_group_IT_number 12
loop_
_space_group_symop_id
_space_group_symop_operation_xyz
1 '-x, y, -z'
2 '-x, -y, -z'
3 'x, -y, z'
4 'x, y, z'
5 '-x+1/2, y+1/2, -z'
6 '-x+1/2, -y+1/2, -z'
7 'x+1/2, -y+1/2, z'
8 'x+1/2, y+1/2, z'
loop_
_atom_type_symbol
_atom_type_oxidation_number
Bi3+ 3
O2- -2
V5+ 5
O2- -2
V5+ 5
O2- -2
V5+ 5
O2- -2
V5+ 5
O2- -2
V5+ 5
O2- -2
V5+ 5
O2- -2
loop_
_atom_site_label
_atom_site_type_symbol
_atom_site_symmetry_multiplicity
_atom_site_Wyckoff_symbol
_atom_site_fract_x
_atom_site_fract_y
_atom_site_fract_z
_atom_site_U_iso_or_equiv
_atom_site_occupancy
Bi1 Bi3+ 2 c 0. 0. 0.5 0.0321 1.
Bi2 Bi3+ 4 h 0. 0.31654 0.5 0.0297 1.
Bi3 Bi3+ 4 i 0.54978 0. 0.15991 0.0136 1.
Bi4 Bi3+ 4 i 0.1003 0. 0.82775 0.0199 1.
Bi5 Bi3+ 4 i 0.07026 0. 0.05302 0.0196 1.
Bi6 Bi3+ 4 i 0.0387 0. 0.2728 0.0253 1.
Bi7 Bi3+ 4 i 0.33474 0. 0.50509 0.0625 1.
Bi8 Bi3+ 4 i 0.53169 0. 0.39367 0.0511 1.
Bi9 Bi3+ 4 i 0.21647 0. 0.15843 0.0322 1.
Bi10 Bi3+ 8 j 0.028 0.16899 0.38911 0.01426 1.
Bi11 Bi3+ 8 j 0.22032 0.33176 0.15979 0.01246 1.
Bi12 Bi3+ 8 j 0.19103 0.3318 0.38403 0.014 1.
Bi13 Bi3+ 8 j 0.07545 0.32255 0.05034 0.01228 1.
Bi14 Bi3+ 8 j 0.02207 0.32706 0.27678 0.01641 1.
Bi15 Bi3+ 8 j 0.05726 0.18032 0.16647 0.0298 1.
Bi16 Bi3+ 8 j 0.16865 0.17086 0.49919 0.01725 1.
Bi17 Bi3+ 8 j 0.40768 0.34439 0.06304 0.0185 1.
Bi18 Bi3+ 8 j 0.36718 0.34169 0.28055 0.01602 1.
Bi19 Bi3+ 8 j 0.36305 0.15664 0.3957 0.01703 1.
Bi20 Bi3+ 8 j 0.19111 0.16785 0.27111 0.01517 1.
Bi21 Bi3+ 8 j 0.23854 0.15896 0.05171 0.01299 1.
Bi22 Bi3+ 8 j 0.38563 0.17583 0.17822 0.02745 1.
O1 O2- 4 i 0.0632 0. 0.8955 0.059 1.
O2 O2- 4 i 0.336 0. 0.5958 0.024 1.
O3 O2- 4 i 0.9448 0. 0.0241 0.046 1.
O4 O2- 4 i 0.1535 0. 0.2531 0.033 1.
O5 O2- 4 i 0.0911 0. 0.7391 0.017 1.
O6 O2- 4 i 0.1105 0. 0.1368 0.053 1.
O7 O2- 4 i 0.0066 0. 0.2023 0.019 1.
O8 O2- 4 i 0.2156 0. 0.0792 0.044 1.
O9 O2- 4 i 0.4085 0. 0.419 0.057 1.
O10 O2- 4 i 0.4368 0. 0.5342 0.031 1.
O11 O2- 8 j 0.1774 0.1978 0.1977 0.025 1.
O12 O2- 8 j 0.1285 0.1718 0.0385 0.0212 1.
O13 O2- 8 j 0.2044 0.2921 0.4549 0.052 1.
O14 O2- 8 j 0.0809 0.1854 0.2597 0.0181 1.
O15 O2- 8 j 0.2547 0.1926 0.1244 0.027 1.
O16 O2- 8 j 0.3617 0.1776 0.4687 0.034 1.
O17 O2- 8 j 0.0333 0.2927 0.5847 0.025 1.
O18 O2- 8 j 0.4214 0.3097 0.1405 0.043 1.
O19 O2- 8 j 0.4366 0.2629 0.2389 0.03 1.
O20 O2- 8 j 0.4748 0.3023 0.3207 0.063 1.
O21 O2- 8 j 0.3188 0.3131 0.205 0.057 1.
O22 O2- 8 j 0.0151 0.3587 0.1969 0.039 1.
O23 O2- 8 j 0.1037 0.3136 0.123 0.045 1.
O24 O2- 8 j 0.0603 0.1669 0.4759 0.052 1.
O25 O2- 8 j 0.0836 0.3154 0.3749 0.039 1.
O26 O2- 8 j 0.0114 0.1848 0.0718 0.083 1.
V1 V5+ 4 i 0.19044 0. 0.38619 0.0132 1.
O27 O2- 4 i 0.1528 0. 0.4328 0.083 1.
O28 O2- 4 i 0.2747 0. 0.4029 0.093 1.
O29 O2- 8 j 0.1688 0.1183 0.3553 0.072 1.
V2 V5+ 4 i 0.13262 0. 0.60054 0.0132 1.
O30 O2- 4 i 0.0593 0. 0.5652 0.083 1.
O31 O2- 4 i 0.1168 0. 0.655 0.093 1.
O32 O2- 8 j 0.1762 0.1183 0.5919 0.072 1.
V3 V5+ 4 i 0.74427 0. 0.05951 0.0132 1.
O33 O2- 4 i 0.7871 0. 0.0153 0.083 1.
O34 O2- 4 i 0.7999 0. 0.1085 0.093 1.
O35 O2- 8 j 0.1967 0.3817 0.0578 0.072 1.
V4 V5+ 4 i 0.68626 0. 0.26543 0.0132 1.
O36 O2- 4 i 0.2302 0. 0.7327 0.083 1.
O37 O2- 4 i 0.6495 0. 0.2101 0.093 1.
O38 O2- 8 j 0.1627 0.3817 0.2909 0.072 1.
V5 V5+ 4 i 0.41178 0. 0.07024 0.0226 1.
O39 O2- 4 i 0.4793 0. 0.0471 0.076 0.5
O40 O2- 4 i 0.4357 0. 0.1284 0.076 1.
O41 O2- 8 j 0.4366 0.1169 0.0446 0.078 0.5
O42 O2- 4 i 0.327 0. 0.0584 0.139 0.5
O43 O2- 8 j 0.3658 0.1184 0.0565 0.043 0.5
V6 V5+ 4 i 0.36083 0. 0.28073 0.0226 1.
O44 O2- 4 i 0.4013 0. 0.3322 0.076 0.5
O45 O2- 4 i 0.4191 0. 0.244 0.076 1.
O46 O2- 8 j 0.3644 0.1169 0.3138 0.078 0.5
O47 O2- 4 i 0.282 0. 0.2498 0.139 0.5
O48 O2- 8 j 0.3137 0.1184 0.2701 0.043 0.5
loop_
_atom_site_aniso_label
_atom_site_aniso_type_symbol
_atom_site_aniso_U_11
_atom_site_aniso_U_22
_atom_site_aniso_U_33
_atom_site_aniso_U_12
_atom_site_aniso_U_13
_atom_site_aniso_U_23
Bi1 Bi3+ 0.026 0.0172 0.0571 0. 0.0192 0.
Bi2 Bi3+ 0.0378 0.0197 0.0321 0. 0.0075 0.
Bi3 Bi3+ 0.0193 0.0112 0.011 0. 0.0047 0.
Bi4 Bi3+ 0.0096 0.0284 0.0196 0. -0.004 0.
Bi5 Bi3+ 0.0269 0.0248 0.008 0. 0.005 0.
Bi6 Bi3+ 0.0301 0.0267 0.017 0. -0.0031 0.
Bi7 Bi3+ 0.0195 0.0301 0.1334 0. -0.0026 0.
Bi8 Bi3+ 0.0983 0.0405 0.0175 0. 0.018 0.
Bi9 Bi3+ 0.0143 0.0506 0.0294 0. -0.0037 0.
Bi10 Bi3+ 0.017 0.0142 0.0105 -0.00238 -0.00143 0.00311
Bi11 Bi3+ 0.01123 0.0128 0.0128 0.00177 0.00012 0.00027
Bi12 Bi3+ 0.01277 0.0158 0.0136 0.001 0.00264 0.00169
Bi13 Bi3+ 0.0121 0.0162 0.00814 -0.00148 0.00009 0.00138
Bi14 Bi3+ 0.0154 0.0144 0.0184 0.00181 -0.00088 -0.00653
Bi15 Bi3+ 0.0255 0.0309 0.033 0.008 0.0048 0.0017
Bi16 Bi3+ 0.0113 0.0134 0.0262 0.00148 0.00014 -0.00153
Bi17 Bi3+ 0.0168 0.0201 0.0178 0.00349 0.00004 -0.0011
Bi18 Bi3+ 0.018 0.017 0.0145 0.00239 0.00684 -0.00269
Bi19 Bi3+ 0.0159 0.0153 0.017 -0.0004 -0.00665 -0.00143
Bi20 Bi3+ 0.0157 0.0133 0.0143 -0.00148 -0.00477 -0.00136
Bi21 Bi3+ 0.0143 0.0163 0.00785 -0.00001 -0.00018 -0.00236
Bi22 Bi3+ 0.042 0.0171 0.021 -0.0098 -0.0021 -0.0018
V1 V5+ 0.0112 0.0133 0.0161 0. 0.0053 0.
V2 V5+ 0.0154 0.0133 0.0099 0. -0.001 0.
V3 V5+ 0.0172 0.0133 0.0091 0. 0.0023 0.
V4 V5+ 0.0106 0.0133 0.0146 0. -0.0016 0.
V5 V5+ 0.0183 0.0207 0.0266 0. -0.0036 0.
V6 V5+ 0.0152 0.0207 0.0314 0. 0.0021 0.
#End of TTdata_418370-ICSD