
#(C) 2022 by FIZ Karlsruhe - Leibniz Institute for Information Infrastructure.  All rights reserved.
data_65728-ICSD
_database_code_ICSD 65728
_audit_creation_date 1990-06-08
_audit_update_record 2006-04-01
_chemical_name_common 'Bismuth bismuth vanadium oxide (12/0.03/0.89/20.27)'
_chemical_formula_structural 'Bi12 (Bi.03 V.89) O20.27'
_chemical_formula_sum 'Bi12.03 O20.27 V0.89'
_chemical_name_structure_type Sillenite#Bi12SiO20
_exptl_crystal_density_diffrn 8.9
_citation_title

;
Neutron-diffraction study of the atomic structure of Bi12 (V, Bi) O20+x single
crystals
;
loop_
_citation_id
_citation_journal_full
_citation_year
_citation_journal_volume
_citation_page_first
_citation_page_last
_citation_journal_id_ASTM
primary 'Doklady Akademii Nauk SSSR' 1989 307 606 610 DANKAS
loop_
_citation_author_citation_id
_citation_author_name
primary 'Radaev, S.F.'
primary 'Muradyan, L.A.'
primary 'Sarin, V.A.'
primary 'Kanepit, V.N.'
primary 'Yudin, A.N.'
primary 'Marin, A.A.'
primary 'Simonov, V.I.'
_cell_length_a 10.247
_cell_length_b 10.247
_cell_length_c 10.247
_cell_angle_alpha 90.
_cell_angle_beta 90.
_cell_angle_gamma 90.
_cell_volume 1075.95
_cell_formula_units_Z 2
_space_group_name_H-M_alt 'I 2 3'
_space_group_IT_number 197
loop_
_space_group_symop_id
_space_group_symop_operation_xyz
1 '-z, -x, y'
2 '-y, -z, x'
3 '-x, -y, z'
4 '-z, x, -y'
5 '-y, z, -x'
6 '-x, y, -z'
7 'z, -x, -y'
8 'y, -z, -x'
9 'x, -y, -z'
10 'z, x, y'
11 'y, z, x'
12 'x, y, z'
13 '-z+1/2, -x+1/2, y+1/2'
14 '-y+1/2, -z+1/2, x+1/2'
15 '-x+1/2, -y+1/2, z+1/2'
16 '-z+1/2, x+1/2, -y+1/2'
17 '-y+1/2, z+1/2, -x+1/2'
18 '-x+1/2, y+1/2, -z+1/2'
19 'z+1/2, -x+1/2, -y+1/2'
20 'y+1/2, -z+1/2, -x+1/2'
21 'x+1/2, -y+1/2, -z+1/2'
22 'z+1/2, x+1/2, y+1/2'
23 'y+1/2, z+1/2, x+1/2'
24 'x+1/2, y+1/2, z+1/2'
loop_
_atom_type_symbol
_atom_type_oxidation_number
Bi3+ 3
V5+ 5
O2- -2
loop_
_atom_site_label
_atom_site_type_symbol
_atom_site_symmetry_multiplicity
_atom_site_Wyckoff_symbol
_atom_site_fract_x
_atom_site_fract_y
_atom_site_fract_z
_atom_site_B_iso_or_equiv
_atom_site_occupancy
Bi1 Bi3+ 24 f 0.17765 0.3226 0.47707 1. 1.
Bi2 Bi3+ 2 a 0. 0. 0. 0.6 0.03
V1 V5+ 2 a 0. 0. 0. 0.6 0.89
O1 O2- 24 f 0.00943 0.25252 0.36617 1.13 1.
O2 O2- 8 c 0.29993 0.29993 0.29993 1.09 1.
O3 O2- 8 c 0.09718 0.09718 0.09718 1.68 1.
O4 O2- 6 b 0. 0.5 0.5 1.8 0.09
#End of TTdata_65728-ICSD