
#(C) 2022 by FIZ Karlsruhe - Leibniz Institute for Information Infrastructure.  All rights reserved.
data_94230-ICSD
_database_code_ICSD 94230
_audit_creation_date 2003-10-01
_chemical_name_common 'Bismuth oxide - alpha'
_chemical_formula_structural 'Bi2 O3'
_chemical_formula_sum 'Bi2 O3'
_chemical_name_structure_type Bi2O3
_exptl_crystal_density_diffrn 9.28
_diffrn_ambient_temperature 600.
_citation_title
'Structural studies of alpha-(Bi2 O3) by neutron powder diffraction'
loop_
_citation_id
_citation_journal_full
_citation_year
_citation_journal_volume
_citation_page_first
_citation_page_last
_citation_journal_id_ASTM
primary 'Powder Diffraction' 2001 16 227 230 PODIE2
loop_
_citation_author_citation_id
_citation_author_name
primary 'Ivanov, S.A.'
primary 'Tellgren, R.'
primary 'Rundlof, H.'
primary 'Orlov, V.G.'
_cell_length_a 5.8831
_cell_length_b 8.1743
_cell_length_c 7.5252
_cell_angle_alpha 90.
_cell_angle_beta 112.86
_cell_angle_gamma 90.
_cell_volume 333.46
_cell_formula_units_Z 4
_space_group_name_H-M_alt 'P 1 21/c 1'
_space_group_IT_number 14
loop_
_space_group_symop_id
_space_group_symop_operation_xyz
1 'x, -y+1/2, z+1/2'
2 '-x, -y, -z'
3 '-x, y+1/2, -z+1/2'
4 'x, y, z'
loop_
_atom_type_symbol
_atom_type_oxidation_number
Bi3+ 3
O2- -2
loop_
_atom_site_label
_atom_site_type_symbol
_atom_site_symmetry_multiplicity
_atom_site_Wyckoff_symbol
_atom_site_fract_x
_atom_site_fract_y
_atom_site_fract_z
_atom_site_B_iso_or_equiv
_atom_site_occupancy
Bi1 Bi3+ 4 e 0.5244 0.3149 0.363 0.97 1.
Bi2 Bi3+ 4 e 0.0383 0.0432 0.2768 1.04 1.
O1 O2- 4 e 0.7781 0.303 0.2076 1.37 1.
O2 O2- 4 e 0.2358 0.4494 0.1271 1.25 1.
O3 O2- 4 e 0.2692 0.0279 0.0116 1.21 1.
#End of TTdata_94230-ICSD