
#(C) 2022 by FIZ Karlsruhe - Leibniz Institute for Information Infrastructure.  All rights reserved.
data_6289-ICSD
_database_code_ICSD 6289
_audit_creation_date 1980-01-01
_audit_update_record 2012-08-01
_chemical_name_common 'Copper vanadium oxide (0.6/2/5) - beta'
_chemical_formula_structural 'Cu0.55 V2 O5'
_chemical_formula_sum 'Cu0.55 O5 V2'
_exptl_crystal_density_diffrn 4.05
_citation_title

;
Bronzes oxygenes de vanadium de formule Cux V2 O5. Structure cristalline des
phases Cux V2 O5 -beta et Cux V2 O5 - epsilon
;
loop_
_citation_id
_citation_journal_full
_citation_year
_citation_journal_volume
_citation_page_first
_citation_page_last
_citation_journal_id_ASTM
primary 'Journal of Solid State Chemistry' 1970 2 531 543 JSSCBI
loop_
_citation_author_citation_id
_citation_author_name
primary 'Galy, J.'
primary 'Lavaud, D.'
primary 'Casalot, A.'
primary 'Hagenmuller, P.'
_cell_length_a 15.25
_cell_length_b 3.62
_cell_length_c 10.1
_cell_angle_alpha 90.
_cell_angle_beta 106.9
_cell_angle_gamma 90.
_cell_volume 533.49
_cell_formula_units_Z 6
_space_group_name_H-M_alt 'C 1 m 1'
_space_group_IT_number 8
loop_
_space_group_symop_id
_space_group_symop_operation_xyz
1 'x, -y, z'
2 'x, y, z'
3 'x+1/2, -y+1/2, z'
4 'x+1/2, y+1/2, z'
loop_
_atom_type_symbol
_atom_type_oxidation_number
Cu0+ 0
V0+ 0
O0+ 0
loop_
_atom_site_label
_atom_site_type_symbol
_atom_site_symmetry_multiplicity
_atom_site_Wyckoff_symbol
_atom_site_fract_x
_atom_site_fract_y
_atom_site_fract_z
_atom_site_B_iso_or_equiv
_atom_site_occupancy
Cu1 Cu0+ 4 b 0.2739 0.102 0.777 1.39 0.38
Cu2 Cu0+ 4 b 0.2102 0.081 0.0671 0.98 0.42
V1 V0+ 2 a 0.084 0. 0.4764 0.68 1.
V2 V0+ 2 a 0.8673 0. 0.5287 0.6 1.
V3 V0+ 2 a 0.0436 0. 0.8185 0.81 1.
V4 V0+ 2 a 0.4689 0. 0.0039 0.57 1.
V5 V0+ 2 a 0.421 0. 0.3138 0.58 1.
V6 V0+ 2 a 0.6405 0. 0.2886 0.79 1.
O1 O0+ 2 a 0.742 0. 0.399 1.17 1.
O2 O0+ 2 a 0.933 0. 0.363 0.21 1.
O3 O0+ 2 a 0.116 0. 0.312 1.47 1.
O4 O0+ 2 a 0.176 0. 0.604 0.75 1.
O5 O0+ 2 a 0.014 0. 0.63 1.17 1.
O6 O0+ 2 a 0.843 0. 0.674 0.31 1.
O7 O0+ 2 a 0. 0. 0. 0.54 1.
O8 O0+ 2 a 0.151 0. 0.868 0.89 1.
O9 O0+ 2 a 0.512 0. 0.849 0.1 1.
O10 O0+ 2 a 0.358 0. 0.956 0.67 1.
O11 O0+ 2 a 0.317 0. 0.197 0.65 1.
O12 O0+ 2 a 0.492 0. 0.191 0.56 1.
O13 O0+ 2 a 0.655 0. 0.124 0.64 1.
O14 O0+ 2 a 0.381 0. 0.487 0.16 1.
O15 O0+ 2 a 0.562 0. 0.45 0.1 1.
#End of TTdata_6289-ICSD