
#(C) 2022 by FIZ Karlsruhe - Leibniz Institute for Information Infrastructure.  All rights reserved.
data_417638-ICSD
_database_code_ICSD 417638
_audit_creation_date 2009-02-01
_audit_update_record 2016-08-01
_chemical_name_common 'Bismuth oxide - beta'
_chemical_formula_structural 'Bi2 O3'
_chemical_formula_sum 'Bi2 O3'
_chemical_name_structure_type Bi2O3(tP20)
_exptl_crystal_density_diffrn 9.15
_diffrn_ambient_temperature 295.
_citation_title
'Structural and electrical properties of the 2 Bi2 O3.3 Zr O2 system'
loop_
_citation_id
_citation_journal_full
_citation_year
_citation_journal_volume
_citation_page_first
_citation_page_last
_citation_journal_id_ASTM
primary 'Journal of Solid State Chemistry' 2008 181 1321 1329 JSSCBI
loop_
_citation_author_citation_id
_citation_author_name
primary 'Jovalekic, C.'
primary 'Zdujic, M.'
primary 'Poleti, D.'
primary 'Karanovic, Lj.'
primary 'Mitric, M.'
_cell_length_a 7.74
_cell_length_b 7.74
_cell_length_c 5.6446
_cell_angle_alpha 90.
_cell_angle_beta 90.
_cell_angle_gamma 90.
_cell_volume 338.15
_cell_formula_units_Z 4
_space_group_name_H-M_alt 'P -4 21 c'
_space_group_IT_number 114
loop_
_space_group_symop_id
_space_group_symop_operation_xyz
1 'y+1/2, x+1/2, z+1/2'
2 'y, -x, -z'
3 '-y+1/2, -x+1/2, z+1/2'
4 '-y, x, -z'
5 'x+1/2, -y+1/2, -z+1/2'
6 '-x, -y, z'
7 '-x+1/2, y+1/2, -z+1/2'
8 'x, y, z'
loop_
_atom_type_symbol
_atom_type_oxidation_number
Bi3+ 3
O2- -2
loop_
_atom_site_label
_atom_site_type_symbol
_atom_site_symmetry_multiplicity
_atom_site_Wyckoff_symbol
_atom_site_fract_x
_atom_site_fract_y
_atom_site_fract_z
_atom_site_U_iso_or_equiv
_atom_site_occupancy
Bi1 Bi3+ 8 e 0.003 0.256 0.2639 0.019 1.
O1 O2- 4 d 0. 0.5 0.1025 0.0173 1.
O2 O2- 8 e 0.2103 0.1889 0.0256 0.0316 1.
loop_
_atom_site_aniso_label
_atom_site_aniso_type_symbol
_atom_site_aniso_U_11
_atom_site_aniso_U_22
_atom_site_aniso_U_33
_atom_site_aniso_U_12
_atom_site_aniso_U_13
_atom_site_aniso_U_23
Bi1 Bi3+ 0.023 0.018 0.0166 -0.009 0.009 -0.0043
#End of TTdata_417638-ICSD