
#(C) 2022 by FIZ Karlsruhe - Leibniz Institute for Information Infrastructure.  All rights reserved.
data_82271-ICSD
_database_code_ICSD 82271
_audit_creation_date 1997-11-10
_chemical_name_common 'Dibismuth vanadate(IV) - gamma'
_chemical_formula_structural 'Bi2 (V O5)'
_chemical_formula_sum 'Bi2 O5 V1'
_exptl_crystal_density_diffrn 7.8
_citation_title

;
Continuous structural evolution of (Bi2 O2)2 V2y O4y+2 (1<y<4) Aurivillius
phases in the Bi2 O3 - V O2 system
;
loop_
_citation_id
_citation_journal_full
_citation_year
_citation_journal_volume
_citation_page_first
_citation_page_last
_citation_journal_id_ASTM
primary 'Journal of Solid State Chemistry' 1996 125 54 62 JSSCBI
loop_
_citation_author_citation_id
_citation_author_name
primary 'Sorokina, S.'
primary 'Enjalbert, R.'
primary 'Baules, P.'
primary 'Castro, A.'
primary 'Galy, J.'
_cell_length_a 5.494
_cell_length_b 15.449
_cell_length_c 5.504
_cell_angle_alpha 90.
_cell_angle_beta 90.
_cell_angle_gamma 90.
_cell_volume 467.16
_cell_formula_units_Z 4
_space_group_name_H-M_alt 'P 21 21 2'
_space_group_IT_number 18
loop_
_space_group_symop_id
_space_group_symop_operation_xyz
1 '-x+1/2, y+1/2, -z'
2 'x+1/2, -y+1/2, -z'
3 '-x, -y, z'
4 'x, y, z'
loop_
_atom_type_symbol
_atom_type_oxidation_number
Bi3+ 3
V4+ 4
O2- -2
loop_
_atom_site_label
_atom_site_type_symbol
_atom_site_symmetry_multiplicity
_atom_site_Wyckoff_symbol
_atom_site_fract_x
_atom_site_fract_y
_atom_site_fract_z
_atom_site_B_iso_or_equiv
_atom_site_occupancy
Bi1 Bi3+ 4 c 0.748 0.0827 0.249 . 1.
Bi2 Bi3+ 4 c 0.261 0.5807 0.2408 . 1.
V1 V4+ 4 c 0.228 0.251 0.302 0.4 0.5
V2 V4+ 4 c 0.313 0.241 0.233 0.5 0.5
O1 O2- 2 a 0. 0. 0.52 2. 1.
O2 O2- 2 b 0. 0.5 0.52 2. 1.
O3 O2- 2 a 0. 0. 0.01 2. 1.
O4 O2- 2 b 0. 0.5 0.02 1. 1.
O5 O2- 4 c 0.05 0.24 0.6 2. 0.5
O6 O2- 4 c 0.05 0.2 0.5 3. 0.5
O7 O2- 4 c 0.6 0.234 0.05 1. 0.5
O8 O2- 4 c 0.01 0.222 0. 1. 0.5
O9 O2- 4 c 0.26 0.156 0.21 0.8 0.5
O10 O2- 4 c 0.21 0.325 0.36 0.7 0.5
loop_
_atom_site_aniso_label
_atom_site_aniso_type_symbol
_atom_site_aniso_U_11
_atom_site_aniso_U_22
_atom_site_aniso_U_33
_atom_site_aniso_U_12
_atom_site_aniso_U_13
_atom_site_aniso_U_23
Bi1 Bi3+ 0.032 0.03 0.023 0.004 -0.004 -0.007
Bi2 Bi3+ 0.014 0.011 0.011 -0.004 0.002 0.002
#End of TTdata_82271-ICSD