
#(C) 2022 by FIZ Karlsruhe - Leibniz Institute for Information Infrastructure.  All rights reserved.
data_56390-ICSD
_database_code_ICSD 56390
_audit_creation_date 2003-04-01
_audit_update_record 2007-08-01
_chemical_name_common 'Dibismuth copper oxide'
_chemical_formula_structural 'Bi2 Cu O4'
_chemical_formula_sum 'Bi2 Cu1 O4'
_chemical_name_structure_type CuBi2O4
_chemical_name_mineral Kusachiite
_exptl_crystal_density_diffrn 8.62
_citation_title 'Symmetrie und Krisallstruktur von Bi2 Cu O4'
loop_
_citation_id
_citation_journal_full
_citation_year
_citation_journal_volume
_citation_page_first
_citation_page_last
_citation_journal_id_ASTM
primary 'Zeitschrift fuer Kristallographie, Supplement Issue' 1993 7 39 39
ZKSUP2
loop_
_citation_author_citation_id
_citation_author_name
primary 'Effenberger, H.'
_cell_length_a 8.499
_cell_length_b 8.499
_cell_length_c 5.817
_cell_angle_alpha 90.
_cell_angle_beta 90.
_cell_angle_gamma 90.
_cell_volume 420.18
_cell_formula_units_Z 4
_space_group_name_H-M_alt 'P 4/n c c Z'
_space_group_IT_number 130
loop_
_space_group_symop_id
_space_group_symop_operation_xyz
1 'y+1/2, x+1/2, -z+1/2'
2 '-y, x+1/2, -z'
3 'y+1/2, -x, -z'
4 '-y, -x, -z+1/2'
5 'x+1/2, y+1/2, -z'
6 '-x, y+1/2, -z+1/2'
7 'x+1/2, -y, -z+1/2'
8 '-x, -y, -z'
9 '-y+1/2, -x+1/2, z+1/2'
10 'y, -x+1/2, z'
11 '-y+1/2, x, z'
12 'y, x, z+1/2'
13 '-x+1/2, -y+1/2, z'
14 'x, -y+1/2, z+1/2'
15 '-x+1/2, y, z+1/2'
16 'x, y, z'
loop_
_atom_type_symbol
_atom_type_oxidation_number
Bi3+ 3
Cu2+ 2
O2- -2
loop_
_atom_site_label
_atom_site_type_symbol
_atom_site_symmetry_multiplicity
_atom_site_Wyckoff_symbol
_atom_site_fract_x
_atom_site_fract_y
_atom_site_fract_z
_atom_site_B_iso_or_equiv
_atom_site_occupancy
Bi1 Bi3+ 8 f 0.41842 0.58158 0.25 . 1.
Cu1 Cu2+ 4 c 0.25 0.25 0.078 . 1.
O1 O2- 16 g 0.049 0.141 0.089 . 1.
loop_
_atom_site_aniso_label
_atom_site_aniso_type_symbol
_atom_site_aniso_U_11
_atom_site_aniso_U_22
_atom_site_aniso_U_33
_atom_site_aniso_U_12
_atom_site_aniso_U_13
_atom_site_aniso_U_23
Bi1 Bi3+ 0.0067 0.0067 0.0102 0.0003 0.0002 0.0002
Cu1 Cu2+ 0.0066 0.0066 0.009 0. 0. 0.
O1 O2- 0.008 0.006 0.007 0.001 0.001 0.001
#End of TTdata_56390-ICSD