
#(C) 2022 by FIZ Karlsruhe - Leibniz Institute for Information Infrastructure.  All rights reserved.
data_428058-ICSD
_database_code_ICSD 428058
_audit_creation_date 2015-02-01
_chemical_name_common 'Bismuth vanadium oxide (14/4/31)'
_chemical_formula_structural 'Bi14 V4 O31'
_chemical_formula_sum 'Bi14 O31 V4'
_exptl_crystal_density_diffrn 7.94
_diffrn_ambient_temperature 293.
_citation_title
'A new anion-deficient fluorite-related superstructure of Bi28 V8 O62'
loop_
_citation_id
_citation_journal_full
_citation_year
_citation_journal_volume
_citation_page_first
_citation_page_last
_citation_journal_id_ASTM
primary 'Journal of Solid State Chemistry' 2014 220 259 269 JSSCBI
loop_
_citation_author_citation_id
_citation_author_name
primary 'Dordevic, T.'
primary 'Karanovic, Lj.'
_cell_length_a 11.742
_cell_length_b 5.4039
_cell_length_c 25.1993
_cell_angle_alpha 90.
_cell_angle_beta 108.405
_cell_angle_gamma 90.
_cell_volume 1517.17
_cell_formula_units_Z 2
_space_group_name_H-M_alt 'P 1 21/c 1'
_space_group_IT_number 14
loop_
_space_group_symop_id
_space_group_symop_operation_xyz
1 'x, -y+1/2, z+1/2'
2 '-x, -y, -z'
3 '-x, y+1/2, -z+1/2'
4 'x, y, z'
loop_
_atom_type_symbol
_atom_type_oxidation_number
Bi3+ 3
V5+ 5
O2- -2
loop_
_atom_site_label
_atom_site_type_symbol
_atom_site_symmetry_multiplicity
_atom_site_Wyckoff_symbol
_atom_site_fract_x
_atom_site_fract_y
_atom_site_fract_z
_atom_site_U_iso_or_equiv
_atom_site_occupancy
Bi1 Bi3+ 4 e 0.53832 0.18309 0.2053 0.01238 1.
Bi2 Bi3+ 4 e 0.23651 0.22838 0.22328 0.01705 1.
Bi3 Bi3+ 4 e 0.3148 0.71974 0.13982 0.01442 1.
Bi4 Bi3+ 4 e 0.00581 0.2344 0.36453 0.0156 0.542
Bi5 Bi3+ 4 e 0.01967 0.6757 0.16266 0.0152 0.458
Bi6 Bi3+ 4 e 0.1027 0.2376 0.0678 0.0149 0.449
Bi7 Bi3+ 4 e 0.1078 0.1591 0.06592 0.0149 0.551
Bi8 Bi3+ 4 e 0.37218 0.26345 0.39689 0.01217 1.
Bi9 Bi3+ 4 e 0.78451 0.22276 0.03345 0.01729 1.
V1 V5+ 4 e 0.15356 0.732 0.31398 0.0128 1.
V2 V5+ 4 e 0.40709 0.2703 0.05492 0.0109 1.
O1 O2- 4 e 0.2117 0.5133 0.3668 0.023 1.
O2 O2- 4 e 0.003 0.75 0.3003 0.038 1.
O3 O2- 4 e 0.1937 0.6686 0.2566 0.027 1.
O4 O2- 4 e 0.2092 0.012 0.3387 0.05 1.
O5 O2- 4 e 0.3496 0.2139 0.1081 0.024 1.
O6 O2- 4 e 0.4205 0.5824 0.051 0.021 1.
O7 O2- 4 e 0.5465 0.136 0.0723 0.027 1.
O8 O2- 4 e 0.3064 0.3371 0.4943 0.0198 1.
O9 O2- 4 e 0.1621 0.462 0.1468 0.0115 1.
O10 O2- 4 e 0.1601 0.5374 0.643 0.0129 1.
O11 O2- 4 e 0.613 0.477 0.2858 0.0113 1.
O12 O2- 4 e 0.3829 0.4782 0.2173 0.0106 1.
O13 O2- 4 e 0.0597 0.4978 0.4388 0.0215 1.
O14 O2- 4 e 0.0608 0.011 0.4302 0.045 0.8
O15 O2- 4 e 0.1649 0.758 0.0404 0.032 0.8
O16 O2- 4 e 0.4256 0.3028 0.3267 0.0153 0.9
loop_
_atom_site_aniso_label
_atom_site_aniso_type_symbol
_atom_site_aniso_U_11
_atom_site_aniso_U_22
_atom_site_aniso_U_33
_atom_site_aniso_U_12
_atom_site_aniso_U_13
_atom_site_aniso_U_23
Bi1 Bi3+ 0.0105 0.0151 0.0113 -0.0007 0.00326 0.00264
Bi2 Bi3+ 0.019 0.0152 0.0219 0.00472 0.01356 0.00304
Bi3 Bi3+ 0.0167 0.0151 0.0127 0.0052 0.00629 0.0014
Bi4 Bi3+ 0.0147 0.0114 0.0223 0.0009 0.0083 0.0006
Bi5 Bi3+ 0.0096 0.0149 0.0213 0.0004 0.0051 0.0062
Bi6 Bi3+ 0.0128 0.0159 0.0153 0.0019 0.0034 0.0024
Bi7 Bi3+ 0.0128 0.0159 0.0153 0.0019 0.0034 0.0024
Bi8 Bi3+ 0.0129 0.0116 0.0135 0.00028 0.00629 0.00054
Bi9 Bi3+ 0.0152 0.0152 0.0185 0.00227 0.00117 -0.00109
V1 V5+ 0.0113 0.0091 0.0187 0.0011 0.0059 -0.0047
V2 V5+ 0.0102 0.0102 0.012 -0.0006 0.0028 0.0006
O1 O2- 0.016 0.027 0.024 -0.005 0.006 -0.004
O2 O2- 0.008 0.073 0.031 0.008 0.001 -0.002
O3 O2- 0.031 0.032 0.026 -0.011 0.019 -0.004
O4 O2- 0.032 0.031 0.069 0.004 -0.009 -0.017
O5 O2- 0.022 0.029 0.021 -0.002 0.008 0.003
O6 O2- 0.021 0.013 0.026 0.001 0.003 0.002
O7 O2- 0.019 0.023 0.035 -0.008 0.005 -0.01
O8 O2- 0.022 0.021 0.017 -0.006 0.007 0.
O9 O2- 0.006 0.007 0.022 0.001 0.007 -0.004
O10 O2- 0.015 0.009 0.015 -0.005 0.006 -0.005
O11 O2- 0.011 0.01 0.016 -0.002 0.01 -0.001
O12 O2- 0.006 0.019 0.01 -0.003 0.006 -0.005
O13 O2- 0.014 0.015 0.038 0.002 0.011 0.003
O14 O2- 0.034 0.021 0.049 0.017 -0.032 -0.022
O15 O2- 0.007 0.084 0.007 -0.002 0.003 0.021
O16 O2- 0.029 0.012 0.011 0. 0.015 0.004
#End of TTdata_428058-ICSD