
#(C) 2022 by FIZ Karlsruhe - Leibniz Institute for Information Infrastructure.  All rights reserved.
data_23479-ICSD
_database_code_ICSD 23479
_audit_creation_date 1980-01-01
_audit_update_record 2005-10-01
_chemical_name_common 'Dicopper divanadate - beta, HT'
_chemical_formula_structural 'Cu2 (V2 O7)'
_chemical_formula_sum 'Cu2 O7 V2'
_chemical_name_structure_type Cu2P2O7
_chemical_name_mineral Ziesite
_exptl_crystal_density_diffrn 3.89
_citation_title

;
Structure cristalline de la variete haute temperature du pyrovanadate de
cuivre: Cu2 V2 O7 beta
;
loop_
_citation_id
_citation_journal_full
_citation_year
_citation_journal_volume
_citation_page_first
_citation_page_last
_citation_journal_id_ASTM
primary

;
Comptes Rendus des Seances de l'Academie des Sciences, Serie C: Sciences
Chimiques
; 1973 277 1101 1104 CHDCAQ
loop_
_citation_author_citation_id
_citation_author_name
primary 'Mercurio Lavaud, D.'
primary 'Frit, B.'
_cell_length_a 7.687
_cell_length_b 8.007
_cell_length_c 10.09
_cell_angle_alpha 90.
_cell_angle_beta 110.45
_cell_angle_gamma 90.
_cell_volume 581.9
_cell_formula_units_Z 4
_space_group_name_H-M_alt 'C 1 2/c 1'
_space_group_IT_number 15
loop_
_space_group_symop_id
_space_group_symop_operation_xyz
1 'x, -y, z+1/2'
2 '-x, -y, -z'
3 '-x, y, -z+1/2'
4 'x, y, z'
5 'x+1/2, -y+1/2, z+1/2'
6 '-x+1/2, -y+1/2, -z'
7 '-x+1/2, y+1/2, -z+1/2'
8 'x+1/2, y+1/2, z'
loop_
_atom_type_symbol
_atom_type_oxidation_number
Cu2+ 2
V5+ 5
O2- -2
loop_
_atom_site_label
_atom_site_type_symbol
_atom_site_symmetry_multiplicity
_atom_site_Wyckoff_symbol
_atom_site_fract_x
_atom_site_fract_y
_atom_site_fract_z
_atom_site_B_iso_or_equiv
_atom_site_occupancy
Cu1 Cu2+ 8 f 0.3098 0.0736 0.014 . 1.
V1 V5+ 8 f 0.214 0.2219 0.287 . 1.
O1 O2- 4 e 0. 0.1354 0.25 . 1.
O2 O2- 8 f 0.234 0.4029 0.3662 . 1.
O3 O2- 8 f 0.3775 0.0881 0.3976 . 1.
O4 O2- 8 f 0.2642 0.2152 0.1291 . 1.
loop_
_atom_site_aniso_label
_atom_site_aniso_type_symbol
_atom_site_aniso_beta_11
_atom_site_aniso_beta_22
_atom_site_aniso_beta_33
_atom_site_aniso_beta_12
_atom_site_aniso_beta_13
_atom_site_aniso_beta_23
Cu1 Cu2+ 0.0052 0.0013 0.00154 0.0006 0.00222 0.00012
V1 V5+ 0.00299 0.00148 0.00106 0.0005 0.00128 0.0001
O1 O2- 0.0075 0.0111 0.00799 0. 0.00389 0.
O2 O2- 0.0158 0.00679 0.0051 0.00075 0.00542 0.00067
O3 O2- 0.00681 0.00606 0.00363 0.00028 0.00227 0.00109
O4 O2- 0.00999 0.00422 0.00279 0.00123 0.00274 0.00041
#End of TTdata_23479-ICSD