
#(C) 2022 by FIZ Karlsruhe - Leibniz Institute for Information Infrastructure.  All rights reserved.
data_75222-ICSD
_database_code_ICSD 75222
_audit_creation_date 1995-10-17
_chemical_name_common 'Tricopper tetrabismuth divanadium oxide'
_chemical_formula_structural 'Cu3 Bi4 V2 O14'
_chemical_formula_sum 'Bi4 Cu3 O14 V2'
_exptl_crystal_density_diffrn 7.29
_citation_title 'Cu3Bi4V2O14, a new compound'
loop_
_citation_id
_citation_journal_full
_citation_year
_citation_journal_volume
_citation_page_first
_citation_page_last
_citation_journal_id_ASTM
primary 'Acta Crystallographica, Section C: Crystal Structure Communications'
1994 50 1178 1180 ACSCEE
loop_
_citation_author_citation_id
_citation_author_name
primary 'Deacon, G.B.'
primary 'Gatehouse, B.M.'
primary 'Ward, G.N.'
_cell_length_a 5.317
_cell_length_b 7.916
_cell_length_c 8.095
_cell_angle_alpha 74.58
_cell_angle_beta 89.38
_cell_angle_gamma 70.39
_cell_volume 308.24
_cell_formula_units_Z 1
_space_group_name_H-M_alt 'P -1'
_space_group_IT_number 2
loop_
_space_group_symop_id
_space_group_symop_operation_xyz
1 '-x, -y, -z'
2 'x, y, z'
loop_
_atom_type_symbol
_atom_type_oxidation_number
Bi3+ 3
Cu2+ 2
V5+ 5
O2- -2
loop_
_atom_site_label
_atom_site_type_symbol
_atom_site_symmetry_multiplicity
_atom_site_Wyckoff_symbol
_atom_site_fract_x
_atom_site_fract_y
_atom_site_fract_z
_atom_site_U_iso_or_equiv
_atom_site_occupancy
Bi1 Bi3+ 2 i 0.89207 0.2046 0.30056 . 1.
Bi2 Bi3+ 2 i 0.42486 0.15405 0.63975 . 1.
Cu1 Cu2+ 2 i 0.3625 0.2236 0.0257 . 1.
Cu2 Cu2+ 1 a 0. 0. 0. . 1.
V1 V5+ 2 i 0.2506 0.5715 0.2456 . 1.
O1 O2- 2 i 0.7096 0.0696 0.1488 0.008 1.
O2 O2- 2 i 0.2261 0.0437 0.1669 0.01 1.
O3 O2- 2 i 0.001 0.3373 0.9132 0.04 1.
O4 O2- 2 i 0.5258 0.6094 0.1548 0.022 1.
O5 O2- 2 i 0.1811 0.6787 0.4045 0.024 1.
O6 O2- 2 i 0.3302 0.3292 0.325 0.013 1.
O7 O2- 2 i 0.7526 0.0025 0.4957 0.006 1.
loop_
_atom_site_aniso_label
_atom_site_aniso_type_symbol
_atom_site_aniso_U_11
_atom_site_aniso_U_22
_atom_site_aniso_U_33
_atom_site_aniso_U_12
_atom_site_aniso_U_13
_atom_site_aniso_U_23
Bi1 Bi3+ 0.0104 0.006 0.0112 -0.0026 0.00007 -0.0006
Bi2 Bi3+ 0.0104 0.0083 0.0121 -0.0014 0.0003 -0.0036
Cu1 Cu2+ 0.0058 0.0079 0.0101 -0.0024 0.0005 0.0009
Cu2 Cu2+ 0.0034 0.0091 0.0108 -0.002 0.0004 -0.0029
V1 V5+ 0.0073 0.0042 0.0141 -0.0034 0.0003 0.0002
#End of TTdata_75222-ICSD