
#(C) 2022 by FIZ Karlsruhe - Leibniz Institute for Information Infrastructure.  All rights reserved.
data_54126-ICSD
_database_code_ICSD 54126
_audit_creation_date 1999-11-30
_audit_update_record 2016-02-01
_chemical_name_common 'Copper dioxide'
_chemical_formula_structural 'Cu O2'
_chemical_formula_sum 'Cu1 O2'
_exptl_crystal_density_diffrn 1.56
_citation_title

;
Importance of the true satellite reflections in the analysis of modulated,
composite crystal structures. I. A new refinement of (M2 Cu2 O3)7+d (Cu O2)10,
M= Bi0.06 Sr0.46 Ca0.48
;
loop_
_citation_id
_citation_journal_full
_citation_year
_citation_journal_volume
_citation_page_first
_citation_page_last
_citation_journal_id_ASTM
primary 'Acta Crystallographica, Section B: Structural Science' 1997 53 113 124
ASBSDK
loop_
_citation_author_citation_id
_citation_author_name
primary 'Jensen, A.F.'
primary 'Larsen, F.K.'
primary 'Iversen, B.B.'
primary 'Petricek, V.'
primary 'Schultz, T.'
primary 'Gao, Y.'
_cell_length_a 2.7522
_cell_length_b 11.38
_cell_length_c 12.996
_cell_angle_alpha 90.
_cell_angle_beta 90.
_cell_angle_gamma 90.
_cell_volume 407.04
_cell_formula_units_Z 4
_space_group_name_H-M_alt 'F 2 2 2'
_space_group_IT_number 22
loop_
_space_group_symop_id
_space_group_symop_operation_xyz
1 '-x, y, -z'
2 'x, -y, -z'
3 '-x, -y, z'
4 'x, y, z'
5 '-x, y+1/2, -z+1/2'
6 'x, -y+1/2, -z+1/2'
7 '-x, -y+1/2, z+1/2'
8 'x, y+1/2, z+1/2'
9 '-x+1/2, y, -z+1/2'
10 'x+1/2, -y, -z+1/2'
11 '-x+1/2, -y, z+1/2'
12 'x+1/2, y, z+1/2'
13 '-x+1/2, y+1/2, -z'
14 'x+1/2, -y+1/2, -z'
15 '-x+1/2, -y+1/2, z'
16 'x+1/2, y+1/2, z'
loop_
_atom_type_symbol
_atom_type_oxidation_number
Cu0+ 0
O0+ 0
loop_
_atom_site_label
_atom_site_type_symbol
_atom_site_symmetry_multiplicity
_atom_site_Wyckoff_symbol
_atom_site_fract_x
_atom_site_fract_y
_atom_site_fract_z
_atom_site_B_iso_or_equiv
_atom_site_occupancy
Cu1 Cu0+ 4 a 0. 0. 0. . 1.
O1 O0+ 8 f 0. 0.3867 0. . 1.
loop_
_atom_site_aniso_label
_atom_site_aniso_type_symbol
_atom_site_aniso_U_11
_atom_site_aniso_U_22
_atom_site_aniso_U_33
_atom_site_aniso_U_12
_atom_site_aniso_U_13
_atom_site_aniso_U_23
Cu1 Cu0+ 0.0048 0.0162 0.0301 0. 0. 0.
O1 O0+ 0.0104 0.02292 0.027 0. 0. -0.021
#End of TTdata_54126-ICSD