
#(C) 2022 by FIZ Karlsruhe - Leibniz Institute for Information Infrastructure.  All rights reserved.
data_1831-ICSD
_database_code_ICSD 1831
_audit_creation_date 1980-01-01
_audit_update_record 2008-08-01
_chemical_name_common 'Dicopper divanadate - alpha'
_chemical_formula_structural 'Cu2 (V2 O7)'
_chemical_formula_sum 'Cu2 O7 V2'
_chemical_name_structure_type Cu2V2O7
_chemical_name_mineral Blossite
_exptl_crystal_density_diffrn 4.06
_citation_title 'Alpha cupric divanadate'
loop_
_citation_id
_citation_journal_full
_citation_year
_citation_journal_volume
_citation_page_first
_citation_page_last
_citation_journal_id_ASTM
primary

;
Acta Crystallographica, Section B: Structural Crystallography and Crystal
Chemistry
; 1975 31 603 605 ACBCAR
loop_
_citation_author_citation_id
_citation_author_name
primary 'Calvo, C.'
primary 'Faggiani, R.'
_cell_length_a 8.383
_cell_length_b 20.645
_cell_length_c 6.442
_cell_angle_alpha 90.
_cell_angle_beta 90.
_cell_angle_gamma 90.
_cell_volume 1114.9
_cell_formula_units_Z 8
_space_group_name_H-M_alt 'F d d 2'
_space_group_IT_number 43
loop_
_space_group_symop_id
_space_group_symop_operation_xyz
1 'x+1/4, -y+1/4, z+1/4'
2 '-x+1/4, y+1/4, z+1/4'
3 '-x, -y, z'
4 'x, y, z'
5 'x+1/4, -y+3/4, z+3/4'
6 '-x+1/4, y+3/4, z+3/4'
7 '-x, -y+1/2, z+1/2'
8 'x, y+1/2, z+1/2'
9 'x+3/4, -y+1/4, z+3/4'
10 '-x+3/4, y+1/4, z+3/4'
11 '-x+1/2, -y, z+1/2'
12 'x+1/2, y, z+1/2'
13 'x+3/4, -y+3/4, z+1/4'
14 '-x+3/4, y+3/4, z+1/4'
15 '-x+1/2, -y+1/2, z'
16 'x+1/2, y+1/2, z'
loop_
_atom_type_symbol
_atom_type_oxidation_number
Cu2+ 2
V5+ 5
O2- -2
loop_
_atom_site_label
_atom_site_type_symbol
_atom_site_symmetry_multiplicity
_atom_site_Wyckoff_symbol
_atom_site_fract_x
_atom_site_fract_y
_atom_site_fract_z
_atom_site_B_iso_or_equiv
_atom_site_occupancy
Cu1 Cu2+ 16 b 0.1354 0.1658 0.25 . 1.
V1 V5+ 16 b 0.3446 0.05094 0.0157 . 1.
O1 O2- 16 b 0.0622 0.2547 0.2226 . 1.
O2 O2- 16 b 0.3132 0.1054 0.2168 . 1.
O3 O2- 16 b 0.1523 0.1619 0.5408 . 1.
O4 O2- 8 a 0. 0. 0.5908 . 1.
loop_
_atom_site_aniso_label
_atom_site_aniso_type_symbol
_atom_site_aniso_U_11
_atom_site_aniso_U_22
_atom_site_aniso_U_33
_atom_site_aniso_U_12
_atom_site_aniso_U_13
_atom_site_aniso_U_23
Cu1 Cu2+ 0.0184 0.0265 0.0058 0.012 -0.0032 -0.0046
V1 V5+ 0.0039 0.0101 0.0011 -0.0001 0.0001 0.0003
O1 O2- 0.015 0.034 0.013 0.013 -0.001 -0.001
O2 O2- 0.01 0.014 0.006 0.004 0.001 -0.004
O3 O2- 0.015 0.016 0.007 0.0002 0.002 0.001
O4 O2- 0.029 0.042 0.014 -0.029 0. 0.
#End of TTdata_1831-ICSD