
#(C) 2022 by FIZ Karlsruhe - Leibniz Institute for Information Infrastructure.  All rights reserved.
data_1501-ICSD
_database_code_ICSD 1501
_audit_creation_date 1980-01-01
_audit_update_record 2013-08-01
_chemical_name_common 'Vanadium(IV) oxide - Al-doped'
_chemical_formula_structural 'V O2'
_chemical_formula_sum 'O2 V1'
_chemical_name_structure_type VO2(aP12)
_exptl_crystal_density_diffrn 2.33
_citation_title
'Structural aspects of the metal-insulator transitions in V0.985 Al0.015 O2'
loop_
_citation_id
_citation_journal_full
_citation_year
_citation_journal_volume
_citation_page_first
_citation_page_last
_citation_journal_id_ASTM
primary 'Journal of Solid State Chemistry' 1977 22 423 438 JSSCBI
loop_
_citation_author_citation_id
_citation_author_name
primary 'Ghedira, M.'
primary 'Vincent, H.'
primary 'Marezio, M.'
primary 'Launay, J.C.'
_cell_length_a 4.5203
_cell_length_b 5.7721
_cell_length_c 9.06
_cell_angle_alpha 90.17
_cell_angle_beta 91.4
_cell_angle_gamma 90.01
_cell_volume 236.32
_cell_formula_units_Z 4
_space_group_name_H-M_alt 'P -1'
_space_group_IT_number 2
loop_
_space_group_symop_id
_space_group_symop_operation_xyz
1 '-x, -y, -z'
2 'x, y, z'
loop_
_atom_type_symbol
_atom_type_oxidation_number
V4+ 4
O2- -2
loop_
_atom_site_label
_atom_site_type_symbol
_atom_site_symmetry_multiplicity
_atom_site_Wyckoff_symbol
_atom_site_fract_x
_atom_site_fract_y
_atom_site_fract_z
_atom_site_U_iso_or_equiv
_atom_site_occupancy
V1 V4+ 2 i 0.49301 0.27889 0.4957 . 1.
V2 V4+ 2 i 0.02695 0.00797 0.733 . 1.
O1 O2- 2 i 0.2021 0.2494 0.3506 0.0068 1.
O2 O2- 2 i 0.2897 0.0008 0.1035 0.0067 1.
O3 O2- 2 i 0.2978 0.0009 0.5998 0.0067 1.
O4 O2- 2 i 0.207 0.7542 0.3537 0.0064 1.
loop_
_atom_site_aniso_label
_atom_site_aniso_type_symbol
_atom_site_aniso_U_11
_atom_site_aniso_U_22
_atom_site_aniso_U_33
_atom_site_aniso_U_12
_atom_site_aniso_U_13
_atom_site_aniso_U_23
V1 V4+ 0.0084 0.0066 0.0083 -0.0004 0.0023 -0.0007
V2 V4+ 0.0063 0.0123 0.0052 0.0008 -0.0014 0.001
#End of TTdata_1501-ICSD