
#(C) 2022 by FIZ Karlsruhe - Leibniz Institute for Information Infrastructure.  All rights reserved.
data_21067-ICSD
_database_code_ICSD 21067
_audit_creation_date 1980-01-01
_audit_update_record 2012-02-01
_chemical_name_common 'Copper phyllo-hexaoxodivanadate'
_chemical_formula_structural 'Cu V2 O6'
_chemical_formula_sum 'Cu1 O6 V2'
_chemical_name_structure_type CuV2O6
_exptl_crystal_density_diffrn 4.14
_citation_title 'Structure cristalline de Cu V2 O6'
loop_
_citation_id
_citation_journal_full
_citation_year
_citation_journal_volume
_citation_page_first
_citation_page_last
_citation_journal_id_ASTM
primary 'Bulletin de la Societe Francaise de Mineralogie et de Cristallographie'
1972 95 134 135 BUFCAE
loop_
_citation_author_citation_id
_citation_author_name
primary 'Lavaud, D.'
primary 'Galy, J.'
_cell_length_a 9.18
_cell_length_b 3.58
_cell_length_c 6.48
_cell_angle_alpha 90.
_cell_angle_beta 100.4
_cell_angle_gamma 90.
_cell_volume 209.46
_cell_formula_units_Z 2
_space_group_name_H-M_alt 'C 1 2 1'
_space_group_IT_number 5
loop_
_space_group_symop_id
_space_group_symop_operation_xyz
1 '-x, y, -z'
2 'x, y, z'
3 '-x+1/2, y+1/2, -z'
4 'x+1/2, y+1/2, z'
loop_
_atom_type_symbol
_atom_type_oxidation_number
Cu2+ 2
V5+ 5
O2- -2
loop_
_atom_site_label
_atom_site_type_symbol
_atom_site_symmetry_multiplicity
_atom_site_Wyckoff_symbol
_atom_site_fract_x
_atom_site_fract_y
_atom_site_fract_z
_atom_site_B_iso_or_equiv
_atom_site_occupancy
Cu1 Cu2+ 2 a 0. 0. 0. 0.69 1.
V1 V5+ 4 c 0.3077 0.467 0.3477 0.14 1.
O1 O2- 4 c 0.03 0.002 0.722 0.79 1.
O2 O2- 4 c 0.164 0.503 0.117 1.11 1.
O3 O2- 4 c 0.308 0.019 0.449 1.36 1.
#End of TTdata_21067-ICSD