
#(C) 2022 by FIZ Karlsruhe - Leibniz Institute for Information Infrastructure.  All rights reserved.
data_51091-ICSD
_database_code_ICSD 51091
_audit_creation_date 2001-07-16
_chemical_name_common 'Bismuth copper vanadium oxide'
_chemical_formula_structural 'Bi Cu2 V O6'
_chemical_formula_sum 'Bi1 Cu2 O6 V1'
_exptl_crystal_density_diffrn 6.31
_diffrn_ambient_temperature 298.
_citation_title
'Synthesis and structure of bismuth copper vanadate, Bi Cu2 V 06'
loop_
_citation_id
_citation_journal_full
_citation_year
_citation_journal_volume
_citation_page_first
_citation_page_last
_citation_journal_id_ASTM
primary 'Journal of Solid State Chemistry' 1998 141 149 154 JSSCBI
loop_
_citation_author_citation_id
_citation_author_name
primary 'Radosavljevic, I.'
primary 'Evans, J.S.O.'
primary 'Sleight, A.W.'
_cell_length_a 13.471
_cell_length_b 7.812
_cell_length_c 16.2252
_cell_angle_alpha 90.
_cell_angle_beta 116.69
_cell_angle_gamma 90.
_cell_volume 1525.54
_cell_formula_units_Z 12
_space_group_name_H-M_alt 'P 1 21/c 1'
_space_group_IT_number 14
loop_
_space_group_symop_id
_space_group_symop_operation_xyz
1 'x, -y+1/2, z+1/2'
2 '-x, -y, -z'
3 '-x, y+1/2, -z+1/2'
4 'x, y, z'
loop_
_atom_type_symbol
_atom_type_oxidation_number
Bi3+ 3
Cu2+ 2
V5+ 5
O2- -2
loop_
_atom_site_label
_atom_site_type_symbol
_atom_site_symmetry_multiplicity
_atom_site_Wyckoff_symbol
_atom_site_fract_x
_atom_site_fract_y
_atom_site_fract_z
_atom_site_U_iso_or_equiv
_atom_site_occupancy
Bi1 Bi3+ 4 e 0.15321 0.5116 0.56077 0.0043 1.
Bi2 Bi3+ 4 e 0.16591 0.0112 0.2872 0.0038 1.
Bi3 Bi3+ 4 e 0.53249 0.4889 0.11984 0.0036 1.
Cu1 Cu2+ 4 e 0.6408 0.1817 0.053 0.0073 1.
Cu2 Cu2+ 4 e 0.3681 0.314 0.4443 0.0054 1.
Cu3 Cu2+ 4 e 0.3025 0.2915 0.2326 0.0071 1.
Cu4 Cu2+ 4 e 0.7065 0.1959 0.2604 0.0078 1.
Cu5 Cu2+ 4 e 0.0245 0.3171 0.101 0.0046 1.
Cu6 Cu2+ 4 e 0.0205 0.6779 0.1046 0.0057 1.
V1 V5+ 4 e 0.4615 0.0009 0.1534 0.0083 1.
V2 V5+ 4 e 0.1234 0.4803 0.3158 0.0056 1.
V3 V5+ 4 e 0.2302 0.5214 0.0405 0.0082 1.
O1 O2- 4 e 0.006 0.175 0.002 0.003 1.
O2 O2- 4 e 0.152 0.824 0.17 0.009 1.
O3 O2- 4 e 0.159 0.171 0.172 0.007 1.
O4 O2- 4 e 0.315 0.158 0.337 0.005 1.
O5 O2- 4 e 0.687 0.337 0.153 0.007 1.
O6 O2- 4 e 0.504 0.17 0.497 0.011 1.
O7 O2- 4 e 0.412 0.007 0.034 0.016 1.
O8 O2- 4 e 0.544 0.177 0.194 0.013 1.
O9 O2- 4 e 0.459 0.329 0.301 0.024 1.
O10 O2- 4 e 0.356 0.012 0.185 0.01 1.
O11 O2- 4 e 0.271 0.498 0.364 0.008 1.
O12 O2- 4 e 0.096 0.29 0.345 0.008 1.
O13 O2- 4 e 0.068 0.498 0.196 0.011 1.
O14 O2- 4 e 0.068 0.625 0.353 0.006 1.
O15 O2- 4 e 0.268 0.501 0.16 0.006 1.
O16 O2- 4 e 0.915 0.495 0.029 0.007 1.
O17 O2- 4 e 0.295 0.369 0.011 0.027 1.
O18 O2- 4 e 0.265 0.714 0.023 0.01 1.
#End of TTdata_51091-ICSD