
#(C) 2022 by FIZ Karlsruhe - Leibniz Institute for Information Infrastructure.  All rights reserved.
data_2557-ICSD
_database_code_ICSD 2557
_audit_creation_date 1980-01-01
_audit_update_record 1999-01-19
_chemical_name_common 'Pentacopper divanadium oxide'
_chemical_formula_structural 'Cu5 V2 O10'
_chemical_formula_sum 'Cu5 O10 V2'
_chemical_name_mineral Stoiberite
_exptl_crystal_density_diffrn 4.94
_citation_title 'Crystal structure of Cu5 V2 O10'
loop_
_citation_id
_citation_journal_full
_citation_year
_citation_journal_volume
_citation_page_first
_citation_page_last
_citation_journal_id_ASTM
primary

;
Acta Crystallographica, Section B: Structural Crystallography and Crystal
Chemistry
; 1973 29 1338 1345 ACBCAR
loop_
_citation_author_citation_id
_citation_author_name
primary 'Shannon, R.D.'
primary 'Calvo, C.'
_cell_length_a 8.393
_cell_length_b 6.052
_cell_length_c 16.156
_cell_angle_alpha 90.
_cell_angle_beta 108.09
_cell_angle_gamma 90.
_cell_volume 780.07
_cell_formula_units_Z 4
_space_group_name_H-M_alt 'P 1 21/c 1'
_space_group_IT_number 14
loop_
_space_group_symop_id
_space_group_symop_operation_xyz
1 'x, -y+1/2, z+1/2'
2 '-x, -y, -z'
3 '-x, y+1/2, -z+1/2'
4 'x, y, z'
loop_
_atom_type_symbol
_atom_type_oxidation_number
Cu2+ 2
V5+ 5
O2- -2
loop_
_atom_site_label
_atom_site_type_symbol
_atom_site_symmetry_multiplicity
_atom_site_Wyckoff_symbol
_atom_site_fract_x
_atom_site_fract_y
_atom_site_fract_z
_atom_site_B_iso_or_equiv
_atom_site_occupancy
Cu1 Cu2+ 4 e 0.56052 0.05305 0.10166 . 1.
Cu2 Cu2+ 4 e 0.23609 0.2562 0.01552 . 1.
Cu3 Cu2+ 4 e 0.33949 0.31683 0.21113 . 1.
Cu4 Cu2+ 4 e 0.45931 0.04652 0.40814 . 1.
Cu5 Cu2+ 4 e 0.12919 0.27621 0.32046 . 1.
V1 V5+ 4 e 0.06964 0.78947 0.40113 . 1.
V2 V5+ 4 e 0.71585 0.30687 0.32889 . 1.
O1 O2- 4 e 0.0974 0.3039 0.1952 . 1.
O2 O2- 4 e 0.009 0.2454 0.018 . 1.
O3 O2- 4 e 0.207 0.5787 0.4017 . 1.
O4 O2- 4 e 0.1792 0.0418 0.4151 . 1.
O5 O2- 4 e 0.0967 0.8147 0.1839 . 1.
O6 O2- 4 e 0.3248 0.039 0.1133 . 1.
O7 O2- 4 e 0.3122 0.5629 0.1222 . 1.
O8 O2- 4 e 0.576 0.3146 0.2236 . 1.
O9 O2- 4 e 0.3655 0.2869 0.3332 . 1.
O10 O2- 4 e 0.4685 0.2884 0.0236 . 1.
loop_
_atom_site_aniso_label
_atom_site_aniso_type_symbol
_atom_site_aniso_U_11
_atom_site_aniso_U_22
_atom_site_aniso_U_33
_atom_site_aniso_U_12
_atom_site_aniso_U_13
_atom_site_aniso_U_23
Cu1 Cu2+ 0.0068 0.0085 0.0096 -0.001 0.0026 -0.0036
Cu2 Cu2+ 0.0066 0.0101 0.0072 0.0008 0.0019 0.0029
Cu3 Cu2+ 0.0065 0.0223 0.0062 -0.0002 0.0015 0.003
Cu4 Cu2+ 0.0116 0.0085 0.0087 0.0033 0.0046 0.0028
Cu5 Cu2+ 0.0048 0.0219 0.0079 0.0014 0.0019 0.0034
V1 V5+ 0.005 0.006 0.0056 0. 0.0013 -0.0014
V2 V5+ 0.0052 0.0065 0.007 0.0001 0.0021 0.001
O1 O2- 0.0104 0.0164 0.0054 -0.0015 0. 0.0002
O2 O2- 0.0067 0.018 0.0086 -0.0005 0.0009 -0.0004
O3 O2- 0.0067 0.0173 0.0221 0.002 0.0043 -0.0062
O4 O2- 0.0141 0.0135 0.007 -0.0022 0.0018 -0.0013
O5 O2- 0.0111 0.0203 0.0156 -0.0008 0.007 0.0003
O6 O2- 0.0086 0.0082 0.01 0.0027 0.004 0.0013
O7 O2- 0.0151 0.0094 0.0106 -0.0018 0.0055 0.0011
O8 O2- 0.0083 0.0241 0.0086 0.0018 0.0027 0.002
O9 O2- 0.0101 0.0091 0.007 -0.0014 0.003 0.002
O10 O2- 0.0086 0.0116 0.0074 0.001 0.0032 0.0008
#End of TTdata_2557-ICSD