
#(C) 2022 by FIZ Karlsruhe - Leibniz Institute for Information Infrastructure.  All rights reserved.
data_6097-ICSD
_database_code_ICSD 6097
_audit_creation_date 1980-01-01
_audit_update_record 2006-04-01
_chemical_name_common 'Vanadium oxide (5/9)'
_chemical_formula_structural 'V5 O9'
_chemical_formula_sum 'O9 V5'
_chemical_name_structure_type Ti5O9
_exptl_crystal_density_diffrn 4.73
_diffrn_ambient_temperature 298.
_citation_title 'Structural aspects of the metal-insulator transition in V5 O9'
loop_
_citation_id
_citation_journal_full
_citation_year
_citation_journal_volume
_citation_page_first
_citation_page_last
_citation_journal_id_ASTM
primary 'Journal of Solid State Chemistry' 1974 11 301 313 JSSCBI
loop_
_citation_author_citation_id
_citation_author_name
primary 'Marezio, M.'
primary 'Dernier, P.D.'
primary 'McWhan, D.B.'
primary 'Kachi, S.'
_cell_length_a 5.472
_cell_length_b 7.003
_cell_length_c 8.3491
_cell_angle_alpha 69.529
_cell_angle_beta 75.103
_cell_angle_gamma 70.99
_cell_volume 279.66
_cell_formula_units_Z 2
_space_group_name_H-M_alt 'P -1'
_space_group_IT_number 2
loop_
_space_group_symop_id
_space_group_symop_operation_xyz
1 '-x, -y, -z'
2 'x, y, z'
loop_
_atom_type_symbol
_atom_type_oxidation_number
V3+ 3.6
O2- -2
loop_
_atom_site_label
_atom_site_type_symbol
_atom_site_symmetry_multiplicity
_atom_site_Wyckoff_symbol
_atom_site_fract_x
_atom_site_fract_y
_atom_site_fract_z
_atom_site_B_iso_or_equiv
_atom_site_occupancy
V1 V3+ 1 c 0. 0.5 0. . 1.
V2 V3+ 1 a 0. 0. 0. . 1.
V3 V3+ 2 i 0.34029 0.16346 0.20924 . 1.
V4 V3+ 2 i 0.35007 0.655 0.20808 . 1.
V5 V3+ 2 i 0.28297 0.17333 0.57955 . 1.
V6 V3+ 2 i 0.72243 0.32371 0.42466 . 1.
O1 O2- 2 i 0.6245 0.1495 0.023 . 1.
O2 O2- 2 i 0.0856 0.1936 0.0791 . 1.
O3 O2- 2 i 0.2573 0.466 0.1369 . 1.
O4 O2- 2 i 0.7176 0.5108 0.1994 . 1.
O5 O2- 2 i 0.027 0.1883 0.7592 . 1.
O6 O2- 2 i 0.5939 0.1503 0.6778 . 1.
O7 O2- 2 i 0.5826 0.135 0.3664 . 1.
O8 O2- 2 i 0.0631 0.2005 0.4184 . 1.
O9 O2- 2 i 0.3112 0.4666 0.4596 . 1.
loop_
_atom_site_aniso_label
_atom_site_aniso_type_symbol
_atom_site_aniso_beta_11
_atom_site_aniso_beta_22
_atom_site_aniso_beta_33
_atom_site_aniso_beta_12
_atom_site_aniso_beta_13
_atom_site_aniso_beta_23
V1 V3+ 0.0054 0.0025 0.0021 0.0018 0.0014 0.0002
V2 V3+ 0.0067 0.0036 0.0024 0.0027 0.0022 0.0008
V3 V3+ 0.0051 0.0026 0.0021 0.0016 0.0012 0.0003
V4 V3+ 0.0055 0.0028 0.0018 0.002 0.0016 0.0003
V5 V3+ 0.0053 0.0025 0.002 0.0015 0.0021 0.0002
V6 V3+ 0.0056 0.0031 0.0021 0.0023 0.0021 0.0007
O1 O2- 0.0058 0.0029 0.0022 0.0009 0.002 0.0002
O2 O2- 0.0057 0.0034 0.0027 0.0026 0.0019 0.0008
O3 O2- 0.0057 0.003 0.0024 0.002 0.0014 0.0005
O4 O2- 0.0047 0.0036 0.0023 0.0011 0.0018 0.0003
O5 O2- 0.0068 0.0038 0.0019 0.0016 0.0012 0.0003
O6 O2- 0.0043 0.0029 0.0019 0.0016 0.0012 0.0003
O7 O2- 0.0053 0.0021 0.0021 0.0016 0.0016 0.0002
O8 O2- 0.0051 0.0042 0.0027 0.0022 0.0018 0.0005
O9 O2- 0.0055 0.0027 0.0016 0.0013 0.0015 0.0006
#End of TTdata_6097-ICSD