
#(C) 2022 by FIZ Karlsruhe - Leibniz Institute for Information Infrastructure.  All rights reserved.
data_15041-ICSD
_database_code_ICSD 15041
_audit_creation_date 1986-09-25
_chemical_name_common 'Vanadium oxide (4/9)'
_chemical_formula_structural 'V4 O9'
_chemical_formula_sum 'O9 V4'
_exptl_crystal_density_diffrn 3.78
_citation_title 'On the crystal structure of a new vanadium oxide, V4 O9'
loop_
_citation_id
_citation_journal_full
_citation_year
_citation_journal_volume
_citation_page_first
_citation_page_last
_citation_journal_id_ASTM
primary 'Acta Chemica Scandinavica ' 1970 24 3409 3411 ACSAA4
loop_
_citation_author_citation_id
_citation_author_name
primary 'Wilhelmi, K.A.'
primary 'Waltersson, K.'
_cell_length_a 17.926
_cell_length_b 3.631
_cell_length_c 9.396
_cell_angle_alpha 90.
_cell_angle_beta 90.
_cell_angle_gamma 90.
_cell_volume 611.58
_cell_formula_units_Z 4
_space_group_name_H-M_alt 'P n m a'
_space_group_IT_number 62
loop_
_space_group_symop_id
_space_group_symop_operation_xyz
1 'x+1/2, y, -z+1/2'
2 'x, -y+1/2, z'
3 '-x+1/2, y+1/2, z+1/2'
4 '-x, -y, -z'
5 '-x+1/2, -y, z+1/2'
6 '-x, y+1/2, -z'
7 'x+1/2, -y+1/2, -z+1/2'
8 'x, y, z'
loop_
_atom_type_symbol
_atom_type_oxidation_number
V4+ 4.5
O2- -2
loop_
_atom_site_label
_atom_site_type_symbol
_atom_site_symmetry_multiplicity
_atom_site_Wyckoff_symbol
_atom_site_fract_x
_atom_site_fract_y
_atom_site_fract_z
_atom_site_B_iso_or_equiv
_atom_site_occupancy
V1 V4+ 4 c 0.4941 0.25 0.2713 1.16 1.
V2 V4+ 4 c 0.078 0.25 0.5385 1.26 1.
V3 V4+ 4 c 0.1675 0.25 0.2053 1.21 1.
V4 V4+ 4 c 0.3169 0.25 0.4566 1.13 1.
O1 O2- 4 c 0.0233 0.25 0.726 3.06 1.
O2 O2- 4 c 0.452 0.25 0.0477 2.67 1.
O3 O2- 4 c 0.3457 0.25 0.6579 2.06 1.
O4 O2- 4 c 0.2031 0.25 0.0108 1.82 1.
O5 O2- 4 c 0.0879 0.25 0.3401 0.65 1.
O6 O2- 4 c 0.0435 0.25 0.0833 2.7 1.
O7 O2- 4 c 0.3924 0.25 0.3551 1.92 1.
O8 O2- 4 c 0.1639 0.25 0.5843 1.8 1.
O9 O2- 4 c 0.2393 0.25 0.3124 2.02 1.
#End of TTdata_15041-ICSD