
#(C) 2022 by FIZ Karlsruhe - Leibniz Institute for Information Infrastructure.  All rights reserved.
data_239093-ICSD
_database_code_ICSD 239093
_audit_creation_date 2016-08-01
_chemical_name_common 'Bismuth vanadate - B-type'
_chemical_formula_structural 'Bi3.6 V2 O10'
_chemical_formula_sum 'Bi3.6 O10 V2'
_exptl_crystal_density_diffrn 7.19
_citation_title

;
Interlayer communication in aurivillius vanadate to enable defect structures
and charge ordering
;
loop_
_citation_id
_citation_journal_full
_citation_year
_citation_journal_volume
_citation_page_first
_citation_page_last
_citation_journal_id_ASTM
primary 'Inorganic Chemistry' 2015 54 10925 10933 INOCAJ
loop_
_citation_author_citation_id
_citation_author_name
primary 'Zhang, Yaoqing'
primary 'Yamamoto, Takafumi'
primary 'Green, Mark A.'
primary 'Kageyama, Hiroshi'
primary 'Ueda, Yutaka'
_cell_length_a 5.4826
_cell_length_b 5.5253
_cell_length_c 15.4697
_cell_angle_alpha 90.
_cell_angle_beta 90.
_cell_angle_gamma 90.
_cell_volume 468.62
_cell_formula_units_Z 2
_space_group_name_H-M_alt 'F 2 2 2'
_space_group_IT_number 22
loop_
_space_group_symop_id
_space_group_symop_operation_xyz
1 '-x, y, -z'
2 'x, -y, -z'
3 '-x, -y, z'
4 'x, y, z'
5 '-x, y+1/2, -z+1/2'
6 'x, -y+1/2, -z+1/2'
7 '-x, -y+1/2, z+1/2'
8 'x, y+1/2, z+1/2'
9 '-x+1/2, y, -z+1/2'
10 'x+1/2, -y, -z+1/2'
11 '-x+1/2, -y, z+1/2'
12 'x+1/2, y, z+1/2'
13 '-x+1/2, y+1/2, -z'
14 'x+1/2, -y+1/2, -z'
15 '-x+1/2, -y+1/2, z'
16 'x+1/2, y+1/2, z'
loop_
_atom_type_symbol
_atom_type_oxidation_number
Bi3+ 3
V4+ 4.6
O2- -2
loop_
_atom_site_label
_atom_site_type_symbol
_atom_site_symmetry_multiplicity
_atom_site_Wyckoff_symbol
_atom_site_fract_x
_atom_site_fract_y
_atom_site_fract_z
_atom_site_U_iso_or_equiv
_atom_site_occupancy
Bi1 Bi3+ 8 g 0. 0. 0.33164 0.0216 0.9
V1 V4+ 4 a 0. 0. 0. 0.0582 1.
O1 O2- 4 c 0.25 0.25 0.25 0.012 0.955
O2 O2- 4 d 0.25 0.25 0.75 0.0571 0.945
O3 O2- 8 h 0.25 0.25 0.0379 0.2217 0.951
O4 O2- 8 g 0. 0. 0.1037 0.0158 0.6
#End of TTdata_239093-ICSD