
#(C) 2022 by FIZ Karlsruhe - Leibniz Institute for Information Infrastructure.  All rights reserved.
data_30359-ICSD
_database_code_ICSD 30359
_audit_creation_date 1986-09-25
_audit_update_record 2009-02-01
_chemical_name_common 'Bismuth oxide (2/2.7)'
_chemical_formula_structural 'Bi2 O2.7'
_chemical_formula_sum 'Bi2 O2.7'
_exptl_crystal_density_diffrn 8.43
_citation_title 'An electron diffraction study of thin films in the Bi-O system'
loop_
_citation_id
_citation_journal_full
_citation_year
_citation_journal_volume
_citation_page_first
_citation_page_last
_citation_journal_id_ASTM
primary Kristallografiya 1964 9 857 863 KRISAJ
loop_
_citation_author_citation_id
_citation_author_name
primary 'Zav'yalova, A.A. (Zavyalova, A.A.)'
primary 'Imamov, R.M.'
primary 'Pinsker, Z.G.'
_cell_length_a 3.85
_cell_length_b 3.85
_cell_length_c 12.25
_cell_angle_alpha 90.
_cell_angle_beta 90.
_cell_angle_gamma 90.
_cell_volume 181.58
_cell_formula_units_Z 2
_space_group_name_H-M_alt 'I 4/m m m'
_space_group_IT_number 139
loop_
_space_group_symop_id
_space_group_symop_operation_xyz
1 'y, x, -z'
2 '-y, -x, -z'
3 '-y, x, -z'
4 'y, -x, -z'
5 '-x, y, -z'
6 'x, -y, -z'
7 'x, y, -z'
8 '-x, -y, -z'
9 '-y, -x, z'
10 'y, x, z'
11 'y, -x, z'
12 '-y, x, z'
13 'x, -y, z'
14 '-x, y, z'
15 '-x, -y, z'
16 'x, y, z'
17 'y+1/2, x+1/2, -z+1/2'
18 '-y+1/2, -x+1/2, -z+1/2'
19 '-y+1/2, x+1/2, -z+1/2'
20 'y+1/2, -x+1/2, -z+1/2'
21 '-x+1/2, y+1/2, -z+1/2'
22 'x+1/2, -y+1/2, -z+1/2'
23 'x+1/2, y+1/2, -z+1/2'
24 '-x+1/2, -y+1/2, -z+1/2'
25 '-y+1/2, -x+1/2, z+1/2'
26 'y+1/2, x+1/2, z+1/2'
27 'y+1/2, -x+1/2, z+1/2'
28 '-y+1/2, x+1/2, z+1/2'
29 'x+1/2, -y+1/2, z+1/2'
30 '-x+1/2, y+1/2, z+1/2'
31 '-x+1/2, -y+1/2, z+1/2'
32 'x+1/2, y+1/2, z+1/2'
loop_
_atom_type_symbol
_atom_type_oxidation_number
Bi0+ 0
O0+ 0
loop_
_atom_site_label
_atom_site_type_symbol
_atom_site_symmetry_multiplicity
_atom_site_Wyckoff_symbol
_atom_site_fract_x
_atom_site_fract_y
_atom_site_fract_z
_atom_site_B_iso_or_equiv
_atom_site_occupancy
Bi1 Bi0+ 2 a 0. 0. 0. 0.8 1.
Bi2 Bi0+ 4 e 0. 0. 0.325 0.8 0.5
O1 O0+ 8 g 0. 0.5 0.125 0.8 0.675
#End of TTdata_30359-ICSD