
#(C) 2022 by FIZ Karlsruhe - Leibniz Institute for Information Infrastructure.  All rights reserved.
data_202994-ICSD
_database_code_ICSD 202994
_audit_creation_date 1990-06-08
_chemical_name_common 'Dibismuth copper oxide'
_chemical_formula_structural 'Bi2 Cu O4'
_chemical_formula_sum 'Bi2 Cu1 O4'
_chemical_name_structure_type CuBi2O4
_exptl_crystal_density_diffrn 8.6
_citation_title
'Structure and Oxidation State Relationships in Ternary Copper Oxides'
loop_
_citation_id
_citation_journal_full
_citation_year
_citation_journal_volume
_citation_page_first
_citation_page_last
_citation_journal_id_ASTM
primary 'Journal of Solid State Chemistry' 1989 82 21 29 JSSCBI
loop_
_citation_author_citation_id
_citation_author_name
primary 'Weller, M.T.'
primary 'Lines, D.R.'
_cell_length_a 8.5063
_cell_length_b 8.5063
_cell_length_c 5.8222
_cell_angle_alpha 90.
_cell_angle_beta 90.
_cell_angle_gamma 90.
_cell_volume 421.28
_cell_formula_units_Z 4
_space_group_name_H-M_alt 'P 4/n c c Z'
_space_group_IT_number 130
loop_
_space_group_symop_id
_space_group_symop_operation_xyz
1 'y+1/2, x+1/2, -z+1/2'
2 '-y, x+1/2, -z'
3 'y+1/2, -x, -z'
4 '-y, -x, -z+1/2'
5 'x+1/2, y+1/2, -z'
6 '-x, y+1/2, -z+1/2'
7 'x+1/2, -y, -z+1/2'
8 '-x, -y, -z'
9 '-y+1/2, -x+1/2, z+1/2'
10 'y, -x+1/2, z'
11 '-y+1/2, x, z'
12 'y, x, z+1/2'
13 '-x+1/2, -y+1/2, z'
14 'x, -y+1/2, z+1/2'
15 '-x+1/2, y, z+1/2'
16 'x, y, z'
loop_
_atom_type_symbol
_atom_type_oxidation_number
Cu2+ 2
Bi3+ 3
O2- -2
loop_
_atom_site_label
_atom_site_type_symbol
_atom_site_symmetry_multiplicity
_atom_site_Wyckoff_symbol
_atom_site_fract_x
_atom_site_fract_y
_atom_site_fract_z
_atom_site_B_iso_or_equiv
_atom_site_occupancy
Cu1 Cu2+ 4 c 0.25 0.25 0.0782 . 1.
Bi1 Bi3+ 8 f 0.4186 0.5814 0.25 . 1.
O1 O2- 16 g 0.0495 0.1443 0.0902 . 1.
loop_
_atom_site_aniso_label
_atom_site_aniso_type_symbol
_atom_site_aniso_B_11
_atom_site_aniso_B_22
_atom_site_aniso_B_33
_atom_site_aniso_B_12
_atom_site_aniso_B_13
_atom_site_aniso_B_23
Cu1 Cu2+ 0.32 0.32 0.8 0. 0. 0.
Bi1 Bi3+ 0.42 0.42 0.84 -0.22 0.19 0.19
O1 O2- 0.59 0.8 1.39 0.12 0.19 0.12
#End of TTdata_202994-ICSD