
#(C) 2022 by FIZ Karlsruhe - Leibniz Institute for Information Infrastructure.  All rights reserved.
data_62707-ICSD
_database_code_ICSD 62707
_audit_creation_date 1988-07-15
_chemical_name_common 'Bismuth vanadate'
_chemical_formula_structural 'Bi V O4'
_chemical_formula_sum 'Bi1 O4 V1'
_chemical_name_structure_type Scheelite#CaWO4
_exptl_crystal_density_diffrn 7.26
_diffrn_ambient_pressure 4300000.
_citation_title 'Crystal structure of the high-pressure form of Bi V O4.'
loop_
_citation_id
_citation_journal_full
_citation_year
_citation_journal_volume
_citation_page_first
_citation_page_last
_citation_journal_id_ASTM
primary 'Phase Transitions' 1986 6 165 174 PHTRDP
loop_
_citation_author_citation_id
_citation_author_name
primary 'Mariathasan, J.W.E.'
primary 'Hazen, R.M.'
primary 'Finger, L.W.'
_cell_length_a 5.08
_cell_length_b 5.08
_cell_length_c 11.49
_cell_angle_alpha 90.
_cell_angle_beta 90.
_cell_angle_gamma 90.
_cell_volume 296.52
_cell_formula_units_Z 4
_space_group_name_H-M_alt 'I 41/a Z'
_space_group_IT_number 88
loop_
_space_group_symop_id
_space_group_symop_operation_xyz
1 '-y+3/4, x+3/4, -z+3/4'
2 'y+1/4, -x+3/4, -z+3/4'
3 'x, y+1/2, -z'
4 '-x, -y, -z'
5 'y+1/4, -x+1/4, z+1/4'
6 '-y+3/4, x+1/4, z+1/4'
7 '-x, -y+1/2, z'
8 'x, y, z'
9 '-y+1/4, x+1/4, -z+1/4'
10 'y+3/4, -x+1/4, -z+1/4'
11 'x+1/2, y, -z+1/2'
12 '-x+1/2, -y+1/2, -z+1/2'
13 'y+3/4, -x+3/4, z+3/4'
14 '-y+1/4, x+3/4, z+3/4'
15 '-x+1/2, -y, z+1/2'
16 'x+1/2, y+1/2, z+1/2'
loop_
_atom_type_symbol
_atom_type_oxidation_number
Bi3+ 3
V5+ 5
O2- -2
loop_
_atom_site_label
_atom_site_type_symbol
_atom_site_symmetry_multiplicity
_atom_site_Wyckoff_symbol
_atom_site_fract_x
_atom_site_fract_y
_atom_site_fract_z
_atom_site_B_iso_or_equiv
_atom_site_occupancy
Bi1 Bi3+ 4 b 0. 0.25 0.625 . 1.
V1 V5+ 4 a 0. 0.25 0.125 . 1.
O1 O2- 16 f 0.252 0.108 0.046 . 1.
loop_
_atom_site_aniso_label
_atom_site_aniso_type_symbol
_atom_site_aniso_beta_11
_atom_site_aniso_beta_22
_atom_site_aniso_beta_33
_atom_site_aniso_beta_12
_atom_site_aniso_beta_13
_atom_site_aniso_beta_23
Bi1 Bi3+ 0.0083 0.0083 0.0011 0. 0. 0.
V1 V5+ 0.0091 0.0091 0.0016 0. 0. 0.
O1 O2- 0.004 0.016 0.0016 -0.003 0.001 0.001
#End of TTdata_62707-ICSD