
#(C) 2022 by FIZ Karlsruhe - Leibniz Institute for Information Infrastructure.  All rights reserved.
data_16445-ICSD
_database_code_ICSD 16445
_audit_creation_date 1980-12-31
_audit_update_record 2013-02-01
_chemical_name_common 'Vanadium oxide (3/5) - LT'
_chemical_formula_structural 'V3 O5'
_chemical_formula_sum 'O5 V3'
_chemical_name_structure_type V3O5
_exptl_crystal_density_diffrn 4.72
_citation_title

;
The crystal structure of and valency distribution in the low-temperature
modification of V3 O5. The decisive importance of a few very weak reflexions
in a crystal-structure
;
loop_
_citation_id
_citation_journal_full
_citation_year
_citation_journal_volume
_citation_page_first
_citation_page_last
_citation_journal_id_ASTM
primary

;
Acta Crystallographica, Section B: Structural Crystallography and Crystal
Chemistry
; 1980 36 1332 1339 ACBCAR
loop_
_citation_author_citation_id
_citation_author_name
primary 'Asbrink, S.'
_cell_length_a 9.859
_cell_length_b 5.0416
_cell_length_c 6.991
_cell_angle_alpha 90.
_cell_angle_beta 109.478
_cell_angle_gamma 90.
_cell_volume 327.6
_cell_formula_units_Z 4
_space_group_name_H-M_alt 'P 1 2/c 1'
_space_group_IT_number 13
loop_
_space_group_symop_id
_space_group_symop_operation_xyz
1 'x, -y, z+1/2'
2 '-x, -y, -z'
3 '-x, y, -z+1/2'
4 'x, y, z'
loop_
_atom_type_symbol
_atom_type_oxidation_number
V4+ 4
V3+ 3
O2- -2
loop_
_atom_site_label
_atom_site_type_symbol
_atom_site_symmetry_multiplicity
_atom_site_Wyckoff_symbol
_atom_site_fract_x
_atom_site_fract_y
_atom_site_fract_z
_atom_site_B_iso_or_equiv
_atom_site_occupancy
V1 V4+ 4 g 0.36784 0.00626 0.08927 . 1.
V2 V3+ 4 g 0.12911 0.49659 0.40864 . 1.
V3 V3+ 2 b 0.5 0.5 0. . 1.
V4 V3+ 2 a 0. 0. 0. . 1.
O1 O2- 4 g 0.20017 0.14739 0.03809 . 1.
O2 O2- 4 g 0.31332 0.34014 0.47371 . 1.
O3 O2- 4 g 0.58201 0.15179 0.63923 . 1.
O4 O2- 4 g 0.07895 0.65877 0.13658 . 1.
O5 O2- 2 f 0.5 0.29721 0.25 . 1.
O6 O2- 2 e 0. 0.18517 0.25 . 1.
loop_
_atom_site_aniso_label
_atom_site_aniso_type_symbol
_atom_site_aniso_beta_11
_atom_site_aniso_beta_22
_atom_site_aniso_beta_33
_atom_site_aniso_beta_12
_atom_site_aniso_beta_13
_atom_site_aniso_beta_23
V1 V4+ 0.0088 0.0371 0.0168 -0.0008 0.0033 0.0003
V2 V3+ 0.0088 0.0355 0.0174 0.0002 0.0031 -0.0028
V3 V3+ 0.0108 0.0312 0.0194 0.0015 0.0055 -0.0019
V4 V3+ 0.0107 0.0302 0.017 0.001 0.0046 -0.0013
O1 O2- 0.011 0.0534 0.0351 -0.0043 0.005 -0.0043
O2 O2- 0.0108 0.0378 0.0359 -0.002 0.0064 -0.0062
O3 O2- 0.0136 0.0451 0.0209 0.004 0.0069 0.0021
O4 O2- 0.0138 0.0347 0.0187 0.0002 0.0066 0.0021
O5 O2- 0.0142 0.0402 0.0183 0. 0.0056 0.
O6 O2- 0.0151 0.0356 0.0166 0. 0.0059 0.
#End of TTdata_16445-ICSD