
#(C) 2022 by FIZ Karlsruhe - Leibniz Institute for Information Infrastructure.  All rights reserved.
data_43181-ICSD
_database_code_ICSD 43181
_audit_creation_date 2000-07-15
_audit_update_record 2012-08-01
_chemical_name_common 'Copper oxide'
_chemical_formula_structural 'Cu O'
_chemical_formula_sum 'Cu1 O1'
_chemical_name_structure_type CuO(mS8)
_exptl_crystal_density_diffrn 6.42
_citation_title

;
A crystallographic contribution to the mechanism of a mechanically induced
solid state reaction
;
loop_
_citation_id
_citation_journal_full
_citation_year
_citation_journal_volume
_citation_page_first
_citation_page_last
_citation_journal_id_ASTM
primary 'Journal of Solid State Chemistry' 1996 122 273 280 JSSCBI
loop_
_citation_author_citation_id
_citation_author_name
primary 'Calos, N.J.'
primary 'Forrester, J.S.'
primary 'Schaffer, G.B.'
_cell_length_a 4.6691
_cell_length_b 3.4805
_cell_length_c 5.1183
_cell_angle_alpha 90.
_cell_angle_beta 98.598
_cell_angle_gamma 90.
_cell_volume 82.24
_cell_formula_units_Z 4
_space_group_name_H-M_alt 'C 1 2/c 1'
_space_group_IT_number 15
loop_
_space_group_symop_id
_space_group_symop_operation_xyz
1 'x, -y, z+1/2'
2 '-x, -y, -z'
3 '-x, y, -z+1/2'
4 'x, y, z'
5 'x+1/2, -y+1/2, z+1/2'
6 '-x+1/2, -y+1/2, -z'
7 '-x+1/2, y+1/2, -z+1/2'
8 'x+1/2, y+1/2, z'
loop_
_atom_type_symbol
_atom_type_oxidation_number
Cu2+ 2
O2- -2
loop_
_atom_site_label
_atom_site_type_symbol
_atom_site_symmetry_multiplicity
_atom_site_Wyckoff_symbol
_atom_site_fract_x
_atom_site_fract_y
_atom_site_fract_z
_atom_site_B_iso_or_equiv
_atom_site_occupancy
Cu1 Cu2+ 4 c 0.25 0.25 0. . 1.
O1 O2- 4 e 0. 0.0477 0.25 . 1.
loop_
_atom_site_aniso_label
_atom_site_aniso_type_symbol
_atom_site_aniso_beta_11
_atom_site_aniso_beta_22
_atom_site_aniso_beta_33
_atom_site_aniso_beta_12
_atom_site_aniso_beta_13
_atom_site_aniso_beta_23
Cu1 Cu2+ 0.013 0.021 0.015 -0.009 0.012 0.017
O1 O2- 0.169 0.06 0.077 0. -0.073 0.
#End of TTdata_43181-ICSD