
#(C) 2022 by FIZ Karlsruhe - Leibniz Institute for Information Infrastructure.  All rights reserved.
data_59989-ICSD
_database_code_ICSD 59989
_audit_creation_date 2005-10-01
_chemical_name_common 'Copper vanadium oxide - beta''
_chemical_formula_structural 'Cu0.63 V2 O5'
_chemical_formula_sum 'Cu0.63 O5 V2'
_chemical_name_structure_type NaxV2O5
_exptl_crystal_density_diffrn 4.15
_citation_title

;
Crystal structure study of a beta'-copper vanadium bronze, Cu(x) V2 O5 (x =
0.63), by x-ray and convergent beam electron diffraction
;
loop_
_citation_id
_citation_journal_full
_citation_year
_citation_journal_volume
_citation_page_first
_citation_page_last
_citation_journal_id_ASTM
primary 'Acta Crystallographica, Section B: Structural Science' 2005 61 17 24
ASBSDK
loop_
_citation_author_citation_id
_citation_author_name
primary 'Streltsov, V.'
primary 'Nakashima, P.N.H.'
primary 'Sobolev, A.N.'
primary 'Ozerov, R.P.'
_cell_length_a 15.1
_cell_length_b 3.6382
_cell_length_c 10.0595
_cell_angle_alpha 90.
_cell_angle_beta 105.585
_cell_angle_gamma 90.
_cell_volume 532.32
_cell_formula_units_Z 6
_space_group_name_H-M_alt 'C 1 2/m 1'
_space_group_IT_number 12
loop_
_space_group_symop_id
_space_group_symop_operation_xyz
1 '-x, y, -z'
2 '-x, -y, -z'
3 'x, -y, z'
4 'x, y, z'
5 '-x+1/2, y+1/2, -z'
6 '-x+1/2, -y+1/2, -z'
7 'x+1/2, -y+1/2, z'
8 'x+1/2, y+1/2, z'
loop_
_atom_type_symbol
_atom_type_oxidation_number
Cu0+ 0
V4+ 4.976
V4+ 4.954
V4+ 4.976
O2- -2
loop_
_atom_site_label
_atom_site_type_symbol
_atom_site_symmetry_multiplicity
_atom_site_Wyckoff_symbol
_atom_site_fract_x
_atom_site_fract_y
_atom_site_fract_z
_atom_site_U_iso_or_equiv
_atom_site_occupancy
Cu1 Cu0+ 4 i 0.5412 0. 0.3446 0.0052 0.429
Cu2 Cu0+ 8 j 0.0286 0.4621 0.3575 0.0104 0.254
V1 V4+ 4 i 0.3322 0. 0.08922 0.00281 1.
V2 V4+ 4 i 0.11365 0. 0.12123 0.00556 1.
V3 V4+ 4 i 0.287 0. 0.40626 0.00321 1.
O1 O2- 2 a 0. 0. 0. 0.0065 1.
O2 O2- 4 i 0.81138 0. 0.04394 0.00472 1.
O3 O2- 4 i 0.63235 0. 0.08718 0.00475 1.
O4 O2- 4 i 0.43233 0. 0.2006 0.0062 1.
O5 O2- 4 i 0.26029 0. 0.22253 0.0049 1.
O6 O2- 4 i 0.09558 0. 0.27665 0.0058 1.
O7 O2- 4 i 0.24449 0. 0.57618 0.0051 1.
O8 O2- 4 i 0.39945 0. 0.45988 0.0065 1.
loop_
_atom_site_aniso_label
_atom_site_aniso_type_symbol
_atom_site_aniso_U_11
_atom_site_aniso_U_22
_atom_site_aniso_U_33
_atom_site_aniso_U_12
_atom_site_aniso_U_13
_atom_site_aniso_U_23
Cu1 Cu0+ 0.0047 0.007 0.0032 0. -0.0004 0.
Cu2 Cu0+ 0.0072 0.0181 0.0038 0.0044 -0.0019 -0.0022
V1 V4+ 0.00296 0.00238 0.00293 0. 0.00054 0.
V2 V4+ 0.01055 0.00232 0.00586 0. 0.00573 0.
V3 V4+ 0.00421 0.00255 0.00278 0. 0.00078 0.
O1 O2- 0.0036 0.0049 0.0103 0. 0.0007 0.
O2 O2- 0.0051 0.0034 0.0054 0. 0.00106 0.
O3 O2- 0.0067 0.0031 0.0052 0. 0.00283 0.
O4 O2- 0.0045 0.007 0.0061 0. -0.00027 0.
O5 O2- 0.0063 0.0044 0.0041 0. 0.00174 0.
O6 O2- 0.0065 0.007 0.0043 0. 0.00206 0.
O7 O2- 0.0076 0.0035 0.0045 0. 0.00242 0.
O8 O2- 0.0056 0.0081 0.0049 0. 0.00011 0.
#End of TTdata_59989-ICSD