
#(C) 2022 by FIZ Karlsruhe - Leibniz Institute for Information Infrastructure.  All rights reserved.
data_418372-ICSD
_database_code_ICSD 418372
_audit_creation_date 2009-02-01
_chemical_name_common 'Tricopper(I) vanadate(V)'
_chemical_formula_structural 'Cu3 (V O4)'
_chemical_formula_sum 'Cu3 O4 V1'
_chemical_name_structure_type Stannite#Cu2FeSnS4
_exptl_crystal_density_diffrn 5.39
_diffrn_ambient_temperature 293.
_citation_title
'Example of an unusual tetrahedral coordination of Cu(I) in oxides: Cu3 V O4'
loop_
_citation_id
_citation_journal_full
_citation_year
_citation_journal_volume
_citation_page_first
_citation_page_last
_citation_journal_id_ASTM
primary 'Solid State Sciences' 2008 10 137 140 SSSCFJ
loop_
_citation_author_citation_id
_citation_author_name
primary 'Barrier, N.'
primary 'Hervieu, M.'
primary 'Nguyen, N.'
primary 'Raveau, B.'
_cell_length_a 4.5753
_cell_length_b 4.5753
_cell_length_c 8.9918
_cell_angle_alpha 90.
_cell_angle_beta 90.
_cell_angle_gamma 90.
_cell_volume 188.23
_cell_formula_units_Z 2
_space_group_name_H-M_alt 'I -4 2 m'
_space_group_IT_number 121
loop_
_space_group_symop_id
_space_group_symop_operation_xyz
1 '-y, -x, z'
2 'y, x, z'
3 'y, -x, -z'
4 '-y, x, -z'
5 'x, -y, -z'
6 '-x, y, -z'
7 '-x, -y, z'
8 'x, y, z'
9 '-y+1/2, -x+1/2, z+1/2'
10 'y+1/2, x+1/2, z+1/2'
11 'y+1/2, -x+1/2, -z+1/2'
12 '-y+1/2, x+1/2, -z+1/2'
13 'x+1/2, -y+1/2, -z+1/2'
14 '-x+1/2, y+1/2, -z+1/2'
15 '-x+1/2, -y+1/2, z+1/2'
16 'x+1/2, y+1/2, z+1/2'
loop_
_atom_type_symbol
_atom_type_oxidation_number
Cu1+ 1
V5+ 5
O2- -2
loop_
_atom_site_label
_atom_site_type_symbol
_atom_site_symmetry_multiplicity
_atom_site_Wyckoff_symbol
_atom_site_fract_x
_atom_site_fract_y
_atom_site_fract_z
_atom_site_U_iso_or_equiv
_atom_site_occupancy
Cu1 Cu1+ 4 d 0. 0.5 0.25 0.026 1.
Cu2 Cu1+ 2 b 0. 0. 0.5 0.021 1.
V1 V5+ 2 a 0. 0. 0. 0.024 1.
O1 O2- 8 i 0.225 0.225 0.102 0.0049 1.
#End of TTdata_418372-ICSD