
#(C) 2022 by FIZ Karlsruhe - Leibniz Institute for Information Infrastructure.  All rights reserved.
data_75574-ICSD
_database_code_ICSD 75574
_audit_creation_date 1996-04-22
_chemical_name_common 'Tetrabismuth divanadate(V) - alpha'
_chemical_formula_structural 'Bi4 (V2 O11)'
_chemical_formula_sum 'Bi4 O11 V2'
_exptl_crystal_density_diffrn 7.79
_citation_title

;
Crystal structure of low-temperature form of bismuth vanadium oxide determined
by Rietveld refinement of X-ray and neutron diffraction data (alpha-Bi4 V2
O11)
;
loop_
_citation_id
_citation_journal_full
_citation_year
_citation_journal_volume
_citation_page_first
_citation_page_last
_citation_journal_id_ASTM
primary 'Materials Research Bulletin' 1994 29 175 184 MRBUAC
loop_
_citation_author_citation_id
_citation_author_name
primary 'Joubert, O.'
primary 'Jouanneaux, A.'
primary 'Ganne, M.'
_cell_length_a 5.612
_cell_length_b 15.2829
_cell_length_c 16.6014
_cell_angle_alpha 90.
_cell_angle_beta 90.244
_cell_angle_gamma 90.
_cell_volume 1423.85
_cell_formula_units_Z 6
_space_group_name_H-M_alt 'C 1 2/m 1'
_space_group_IT_number 12
loop_
_space_group_symop_id
_space_group_symop_operation_xyz
1 '-x, y, -z'
2 '-x, -y, -z'
3 'x, -y, z'
4 'x, y, z'
5 '-x+1/2, y+1/2, -z'
6 '-x+1/2, -y+1/2, -z'
7 'x+1/2, -y+1/2, z'
8 'x+1/2, y+1/2, z'
loop_
_atom_type_symbol
_atom_type_oxidation_number
Bi3+ 3
V5+ 5
O2- -2
loop_
_atom_site_label
_atom_site_type_symbol
_atom_site_symmetry_multiplicity
_atom_site_Wyckoff_symbol
_atom_site_fract_x
_atom_site_fract_y
_atom_site_fract_z
_atom_site_B_iso_or_equiv
_atom_site_occupancy
Bi1 Bi3+ 4 h 0. 0.168 0.5 2.09 1.
Bi2 Bi3+ 8 j 0.4877 0.3319 0.1671 2.09 1.
Bi3 Bi3+ 4 g 0. 0.3242 0. 2.09 1.
Bi4 Bi3+ 8 j 0.0492 0.3343 0.3329 2.09 1.
V1 V5+ 2 d 0. 0.5 0.5 2.4 1.
V2 V5+ 4 i 0.489 0. 0.151 2.4 1.
V3 V5+ 4 i 0.154 0. 0.016 2.4 0.5
V4 V5+ 4 i 0.084 0. 0.322 2.4 1.
O1 O2- 8 j 0.266 0.251 0.409 0.5 1.
O2 O2- 8 j 0.279 0.236 0.081 0.5 1.
O3 O2- 8 j 0.254 0.252 0.251 0.5 1.
O4 O2- 4 i 0.319 0. 0.588 2.3 0.875
O5 O2- 8 j 0.142 0.479 0.069 2.3 0.25
O6 O2- 4 i 0.286 0. 0.267 2.3 1.
O7 O2- 4 i 0.127 0. 0.423 2.3 1.
O8 O2- 4 i 0.103 0. 0.133 2.3 0.875
O9 O2- 8 j 0.226 0.452 0.234 2.3 0.375
O10 O2- 8 j 0.408 0.08 0.444 2.3 0.4375
O11 O2- 8 j 0.062 0.408 0.168 2.3 0.8125
O12 O2- 8 j 0.425 0.397 0.307 2.3 1.
O13 O2- 4 g 0. 0.105 0. 2.3 1.
#End of TTdata_75574-ICSD