
#(C) 2022 by FIZ Karlsruhe - Leibniz Institute for Information Infrastructure.  All rights reserved.
data_28443-ICSD
_database_code_ICSD 28443
_audit_creation_date 1986-09-25
_audit_update_record 2007-08-01
_chemical_name_common 'Bismuth oxide - beta'
_chemical_formula_structural 'Bi2 O3'
_chemical_formula_sum 'Bi2 O3'
_chemical_name_structure_type Bi2O3(tP20)
_chemical_name_mineral Sillenite
_exptl_crystal_density_diffrn 9.17
_citation_title

;
Ueber Wismutoxide. VI. Ueber ein Wismut(III)-oxid mit hoeherem
Sauerstoffgehalt (beta-Modifikation)
;
loop_
_citation_id
_citation_journal_full
_citation_year
_citation_journal_volume
_citation_page_first
_citation_page_last
_citation_journal_id_ASTM
primary 'Zeitschrift fuer Anorganische und Allgemeine Chemie (1950) (DE)' 1964
328 44 68 ZAACAB
loop_
_citation_author_citation_id
_citation_author_name
primary 'Gattow, G.'
primary 'Schuetze, D.'
_cell_length_a 10.95
_cell_length_b 10.95
_cell_length_c 5.63
_cell_angle_alpha 90.
_cell_angle_beta 90.
_cell_angle_gamma 90.
_cell_volume 675.05
_cell_formula_units_Z 8
_space_group_name_H-M_alt 'C -4 2 b'
_space_group_IT_number 117
loop_
_space_group_symop_id
_space_group_symop_operation_xyz
1 '-y, -x+1/2, z'
2 'x, -y+1/2, -z'
3 'y, x+1/2, z'
4 '-x, y+1/2, -z'
5 'y, -x, -z'
6 '-y, x, -z'
7 '-x, -y, z'
8 'x, y, z'
9 '-y+1/2, -x, z'
10 'x+1/2, -y, -z'
11 'y+1/2, x, z'
12 '-x+1/2, y, -z'
13 'y+1/2, -x+1/2, -z'
14 '-y+1/2, x+1/2, -z'
15 '-x+1/2, -y+1/2, z'
16 'x+1/2, y+1/2, z'
loop_
_atom_type_symbol
_atom_type_oxidation_number
Bi3+ 3
O2- -2
loop_
_atom_site_label
_atom_site_type_symbol
_atom_site_symmetry_multiplicity
_atom_site_Wyckoff_symbol
_atom_site_fract_x
_atom_site_fract_y
_atom_site_fract_z
_atom_site_B_iso_or_equiv
_atom_site_occupancy
Bi1 Bi3+ 16 i 0.135 0.115 0.25 4.5 1.
O1 O2- 8 g 0.02 0.25 0. 4.5 1.
O2 O2- 8 h 0.02 0.25 0.5 4.5 1.
O3 O2- 4 c 0.25 0.25 0. 4.5 1.
O4 O2- 4 b 0. 0. 0.5 4.5 1.
#End of TTdata_28443-ICSD