
#(C) 2022 by FIZ Karlsruhe - Leibniz Institute for Information Infrastructure.  All rights reserved.
data_418369-ICSD
_database_code_ICSD 418369
_audit_creation_date 2009-02-01
_chemical_name_common 'Bismuth vanadium oxide (23/4/45)'
_chemical_formula_structural 'Bi23 V4 O45'
_chemical_formula_sum 'Bi23 O45 V4'
_exptl_crystal_density_diffrn 8.31
_diffrn_ambient_temperature 293.
_citation_title

;
(M Bi)46 V8 O(y)-family type (M = Pb, Sr, Ca, Cd, Na0.5 Bi0.5): syntheses,
crystal structures and conductivity properties
;
loop_
_citation_id
_citation_journal_full
_citation_year
_citation_journal_volume
_citation_page_first
_citation_page_last
_citation_journal_id_ASTM
primary 'Solid State Sciences' 2008 10 1074 1082 SSSCFJ
loop_
_citation_author_citation_id
_citation_author_name
primary 'Labidi, O.'
primary 'Drache, M.'
primary 'Roussel, P.'
primary 'Wignacourt, J.P.'
_cell_length_a 20.0822
_cell_length_b 11.6351
_cell_length_c 21.0878
_cell_angle_alpha 90.
_cell_angle_beta 111.678
_cell_angle_gamma 90.
_cell_volume 4578.85
_cell_formula_units_Z 4
_space_group_name_H-M_alt 'C 1 2/m 1'
_space_group_IT_number 12
loop_
_space_group_symop_id
_space_group_symop_operation_xyz
1 '-x, y, -z'
2 '-x, -y, -z'
3 'x, -y, z'
4 'x, y, z'
5 '-x+1/2, y+1/2, -z'
6 '-x+1/2, -y+1/2, -z'
7 'x+1/2, -y+1/2, z'
8 'x+1/2, y+1/2, z'
loop_
_atom_type_symbol
_atom_type_oxidation_number
Bi3+ 3
O2- -2
V5+ 5
O2- -2
V5+ 5
O2- -2
V5+ 5
O2- -2
V5+ 5
O2- -2
loop_
_atom_site_label
_atom_site_type_symbol
_atom_site_symmetry_multiplicity
_atom_site_Wyckoff_symbol
_atom_site_fract_x
_atom_site_fract_y
_atom_site_fract_z
_atom_site_U_iso_or_equiv
_atom_site_occupancy
Bi1 Bi3+ 8 j 0.46602 0.32396 0.07675 0.01719 1.
Bi2 Bi3+ 8 j 0.13603 0.15959 0.58038 0.02117 1.
Bi3 Bi3+ 8 j 0.07807 0.32241 0.24736 0.0357 1.
Bi4 Bi3+ 8 j 0.19675 0.16864 0.41404 0.0256 1.
Bi5 Bi3+ 8 j 0.3029 0.16025 0.07895 0.01914 1.
Bi6 Bi3+ 8 j 0.40981 0.33065 0.24034 0.01623 1.
Bi7 Bi3+ 8 j 0.02831 0.33483 0.40612 0.02052 1.
Bi8 Bi3+ 8 j 0.25736 0.17281 0.26772 0.0366 1.
Bi9 Bi3+ 8 j 0.13946 0.3446 0.09396 0.0266 1.
Bi10 Bi3+ 4 i 0.07893 0. 0.23977 0.0226 1.
Bi11 Bi3+ 4 i 0.4135 0. 0.24068 0.0462 1.
Bi12 Bi3+ 4 i 0.46914 0. 0.07895 0.0301 1.
Bi13 Bi3+ 4 i 0.31432 0. 0.5909 0.0394 1.
Bi14 Bi3+ 4 i 0.73994 0. 0.25585 0.0221 1.
O1 O2- 4 i 0.1921 0. 0.602 0.021 1.
O2 O2- 4 i 0.659 0. 0.3034 0.027 1.
O3 O2- 4 i 0.5505 0. 0.3765 0.055 1.
O4 O2- 4 i 0.6462 0. 0.1618 0.048 1.
O5 O2- 4 i 0.353 0. 0.1178 0.042 1.
O6 O2- 4 i 0.5765 0. 0.0388 0.041 1.
O7 O2- 4 i 0.4989 0. 0.2041 0.039 1.
O8 O2- 8 j 0.1275 0.3143 0.3878 0.0213 1.
O9 O2- 8 j 0.3456 0.1912 0.1862 0.036 1.
O10 O2- 8 j 0.4012 0.1752 0.0577 0.033 1.
O11 O2- 8 j 0.4796 0.1942 0.2961 0.031 1.
O12 O2- 8 j 0.2604 0.2633 0.367 0.106 1.
O13 O2- 8 j 0.1918 0.3109 0.2107 0.058 1.
O14 O2- 8 j 0.1486 0.1451 0.2917 0.066 1.
O15 O2- 8 j 0.0473 0.3133 0.1193 0.064 1.
O16 O2- 8 j 0.2171 0.197 0.525 0.181 1.
O17 O2- 8 j 0.4924 0.3167 0.1868 0.061 1.
O18 O2- 8 j 0.3451 0.3085 0.3096 0.073 1.
V1 V5+ 4 i 0.80211 0. 0.09062 0.0148 1.
O19 O2- 8 j 0.3521 0.3799 0.0913 0.065 1.
O20 O2- 4 i 0.7262 0. 0.0261 0.069 1.
O21 O2- 4 i 0.7883 0. 0.1643 0.084 1.
V2 V5+ 4 i 0.14202 0. 0.1028 0.025 1.
O22 O2- 4 i 0.213 0. 0.0838 0.112 0.5
O23 O2- 4 i 0.1627 0. 0.1848 0.104 1.
O24 O2- 8 j 0.1795 0.1139 0.082 0.054 0.5
O25 O2- 4 i 0.052 0. 0.0617 0.064 0.5
O26 O2- 8 j 0.0951 0.114 0.0616 0.125 0.5
V3 V5+ 4 i 0.02813 0. 0.3992 0.025 1.
O27 O2- 4 i 0.09 0. 0.474 0.112 0.5
O28 O2- 4 i 0.0508 0. 0.5961 0.104 1.
O29 O2- 8 j 0.073 0.1139 0.441 0.054 0.5
O30 O2- 4 i 0.0211 0. 0.3168 0.064 0.5
O31 O2- 8 j 0.0464 0.114 0.3601 0.125 0.5
V4 V5+ 4 i 0.37169 0. 0.4257 0.025 1.
O32 O2- 4 i 0.419 0. 0.3782 0.112 0.5
O33 O2- 4 i 0.2865 0. 0.38 0.104 1.
O34 O2- 8 j 0.4088 0.1139 0.4045 0.054 0.5
O35 O2- 4 i 0.3854 0. 0.5099 0.064 0.5
O36 O2- 8 j 0.4011 0.114 0.4768 0.125 0.5
loop_
_atom_site_aniso_label
_atom_site_aniso_type_symbol
_atom_site_aniso_U_11
_atom_site_aniso_U_22
_atom_site_aniso_U_33
_atom_site_aniso_U_12
_atom_site_aniso_U_13
_atom_site_aniso_U_23
Bi1 Bi3+ 0.0213 0.014 0.0145 0.00052 0.00463 0.0011
Bi2 Bi3+ 0.0204 0.0195 0.0175 0.00358 -0.00004 0.0025
Bi3 Bi3+ 0.0427 0.0295 0.0338 0.0054 0.0128 -0.0028
Bi4 Bi3+ 0.0324 0.0209 0.0227 -0.0129 0.0093 -0.0067
Bi5 Bi3+ 0.0185 0.0194 0.0147 0.00238 0.0006 0.0036
Bi6 Bi3+ 0.01584 0.0133 0.0187 0.00148 0.00541 0.
Bi7 Bi3+ 0.0287 0.0152 0.0218 -0.001 0.0142 0.0022
Bi8 Bi3+ 0.0331 0.0219 0.0522 -0.0076 0.0127 -0.0051
Bi9 Bi3+ 0.0311 0.0231 0.0277 0.0024 0.0132 0.0016
Bi10 Bi3+ 0.0206 0.0143 0.0279 0. 0.0032 0.
Bi11 Bi3+ 0.0388 0.0515 0.0649 0. 0.0385 0.
Bi12 Bi3+ 0.0336 0.0261 0.0181 0. -0.0052 0.
Bi13 Bi3+ 0.0633 0.0372 0.0191 0. 0.0168 0.
Bi14 Bi3+ 0.0191 0.0266 0.0223 0. 0.0098 0.
V1 V5+ 0.015 0.0155 0.0084 0. -0.0022 0.
V2 V5+ 0.035 0.0186 0.0276 0. 0.0188 0.
V3 V5+ 0.0195 0.0186 0.0323 0. 0.0042 0.
V4 V5+ 0.0219 0.0186 0.0374 0. 0.0143 0.
#End of TTdata_418369-ICSD