
#(C) 2022 by FIZ Karlsruhe - Leibniz Institute for Information Infrastructure.  All rights reserved.
data_1503-ICSD
_database_code_ICSD 1503
_audit_creation_date 1980-01-01
_audit_update_record 2000-07-15
_chemical_name_common 'Vanadium(IV) oxide - Al-doped'
_chemical_formula_structural 'V O2'
_chemical_formula_sum 'O2 V1'
_exptl_crystal_density_diffrn 2.32
_diffrn_ambient_temperature 323.
_citation_title
'Structural aspects of the metal-insulator transitions in V0.985 Al0.015 O2'
loop_
_citation_id
_citation_journal_full
_citation_year
_citation_journal_volume
_citation_page_first
_citation_page_last
_citation_journal_id_ASTM
primary 'Journal of Solid State Chemistry' 1977 22 423 438 JSSCBI
loop_
_citation_author_citation_id
_citation_author_name
primary 'Ghedira, M.'
primary 'Vincent, H.'
primary 'Marezio, M.'
primary 'Launay, J.C.'
_cell_length_a 4.5217
_cell_length_b 5.8
_cell_length_c 9.06
_cell_angle_alpha 90.
_cell_angle_beta 91.85
_cell_angle_gamma 90.
_cell_volume 237.48
_cell_formula_units_Z 4
_space_group_name_H-M_alt 'P 1 2/m 1'
_space_group_IT_number 10
loop_
_space_group_symop_id
_space_group_symop_operation_xyz
1 '-x, y, -z'
2 '-x, -y, -z'
3 'x, -y, z'
4 'x, y, z'
loop_
_atom_type_symbol
_atom_type_oxidation_number
V4+ 4
O2- -2
loop_
_atom_site_label
_atom_site_type_symbol
_atom_site_symmetry_multiplicity
_atom_site_Wyckoff_symbol
_atom_site_fract_x
_atom_site_fract_y
_atom_site_fract_z
_atom_site_U_iso_or_equiv
_atom_site_occupancy
V1 V4+ 2 i 0. 0.2811 0. . 1.
V2 V4+ 2 m 0.5311 0. 0.2312 . 1.
O1 O2- 4 o 0.2865 0.2474 0.146 0.0075 1.
O2 O2- 2 m 0.2284 0. 0.3975 . 1.
O3 O2- 2 m 0.7862 0. 0.098 . 1.
loop_
_atom_site_aniso_label
_atom_site_aniso_type_symbol
_atom_site_aniso_U_11
_atom_site_aniso_U_22
_atom_site_aniso_U_33
_atom_site_aniso_U_12
_atom_site_aniso_U_13
_atom_site_aniso_U_23
V1 V4+ 0.0053 0.0054 0.0058 0. 0.0014 0.
V2 V4+ 0.004 0.008 0.0049 0. 0. 0.
O2 O2- 0.0037 0.0031 0.0097 0. 0.0017 0.
O3 O2- 0.0039 0.004 0.0171 0. -0.0017 0.
#End of TTdata_1503-ICSD