
#(C) 2022 by FIZ Karlsruhe - Leibniz Institute for Information Infrastructure.  All rights reserved.
data_415113-ICSD
_database_code_ICSD 415113
_audit_creation_date 2005-10-01
_chemical_name_common 'Bismuth vanadium oxide (46/8/89)'
_chemical_formula_structural 'Bi46 V8 O89'
_chemical_formula_sum 'Bi46 O89 V8'
_exptl_crystal_density_diffrn 8.37
_citation_title

;
Crystal structures of the ionic conductors Bi46 M8 O89 (M = P, V) related to
the fluorite-type structure
;
loop_
_citation_id
_citation_journal_full
_citation_year
_citation_journal_volume
_citation_page_first
_citation_page_last
_citation_journal_id_ASTM
primary 'Journal of Solid State Chemistry' 2005 178 1753 1764 JSSCBI
loop_
_citation_author_citation_id
_citation_author_name
primary 'Darriet, J.'
primary 'Launay, J.C.'
primary 'Zuniga, F.J.'
_cell_length_a 20.01
_cell_length_b 11.6445
_cell_length_c 20.4136
_cell_angle_alpha 90.
_cell_angle_beta 107.27
_cell_angle_gamma 90.
_cell_volume 4542.06
_cell_formula_units_Z 2
_space_group_name_H-M_alt 'P 1 21/c 1'
_space_group_IT_number 14
loop_
_space_group_symop_id
_space_group_symop_operation_xyz
1 'x, -y+1/2, z+1/2'
2 '-x, -y, -z'
3 '-x, y+1/2, -z+1/2'
4 'x, y, z'
loop_
_atom_type_symbol
_atom_type_oxidation_number
V5+ 5
Bi3+ 3
O2- -2
loop_
_atom_site_label
_atom_site_type_symbol
_atom_site_symmetry_multiplicity
_atom_site_Wyckoff_symbol
_atom_site_fract_x
_atom_site_fract_y
_atom_site_fract_z
_atom_site_U_iso_or_equiv
_atom_site_occupancy
V1 V5+ 4 e 0.8144 0.3593 0.1079 0.019 1.
V2 V5+ 4 e 0.6819 0.3605 0.3948 0.02 1.
V3 V5+ 4 e 0.0169 0.3461 0.4199 0.016 1.
V4 V5+ 4 e 0.4904 0.3513 0.0838 0.019 1.
Bi1 Bi3+ 4 e 0.19719 0.20322 0.42363 0.0161 1.
Bi2 Bi3+ 4 e 0.30672 0.19827 0.08416 0.0161 1.
Bi3 Bi3+ 4 e 0.19015 0.50845 0.41456 0.0146 1.
Bi4 Bi3+ 4 e 0.31619 0.50328 0.09338 0.0156 1.
Bi5 Bi3+ 4 e 0.02274 0.02736 0.40735 0.0179 1.
Bi6 Bi3+ 4 e 0.47663 0.02628 0.0849 0.023 1.
Bi7 Bi3+ 4 e 0.02749 0.69552 0.41721 0.0154 1.
Bi8 Bi3+ 4 e 0.52508 0.19861 0.42378 0.0159 1.
Bi9 Bi3+ 4 e 0.16034 0.68121 0.08451 0.0163 1.
Bi10 Bi3+ 4 e 0.64863 0.17621 0.08282 0.0194 1.
Bi11 Bi3+ 4 e 0.13338 0.37302 0.0955 0.0163 1.
Bi12 Bi3+ 4 e 0.36834 0.35696 0.40967 0.0318 1.
Bi13 Bi3+ 4 e 0.14799 0.04729 0.08088 0.0156 1.
Bi14 Bi3+ 4 e 0.35223 0.03313 0.41833 0.0167 1.
Bi15 Bi3+ 4 e 0.25725 0.17942 0.25994 0.0272 1.
Bi16 Bi3+ 4 e 0.74891 0.36189 0.25476 0.0167 1.
Bi17 Bi3+ 4 e 0.24668 0.54527 0.25962 0.0236 1.
Bi18 Bi3+ 4 e 0.078 0.03851 0.21974 0.0189 1.
Bi19 Bi3+ 4 e 0.43039 0.03417 0.27241 0.0162 1.
Bi20 Bi3+ 4 e 0.07762 0.68659 0.24125 0.0167 1.
Bi21 Bi3+ 4 e 0.57591 0.18001 0.244 0.0158 1.
Bi22 Bi3+ 4 e 0.0917 0.34629 0.25995 0.0204 1.
Bi23 Bi3+ 4 e 0.40696 0.35286 0.246 0.0157 1.
O1 O2- 4 e 0.1371 0.169 0.2767 0.019 1.
O2 O2- 4 e 0.3642 0.1666 0.2265 0.019 1.
O3 O2- 4 e 0.1748 0.3606 0.3523 0.019 1.
O4 O2- 4 e 0.3243 0.3491 0.1525 0.012 1.
O5 O2- 4 e 0.2833 0.1869 0.3842 0.008 1.
O6 O2- 4 e 0.218 0.19 0.117 0.026 1.
O7 O2- 4 e 0.231 0.36 0.4838 0.028 1.
O8 O2- 4 e 0.2807 0.3503 0.0219 0.02 1.
O9 O2- 4 e 0.0212 0.356 0.1028 0.032 1.
O10 O2- 4 e 0.4749 0.3593 0.3904 0.011 1.
O11 O2- 4 e 0.2123 0.5184 0.1003 0.018 1.
O12 O2- 4 e 0.2882 0.521 0.3927 0.023 1.
O13 O2- 4 e 0.329 0.3562 0.3007 0.01 1.
O14 O2- 4 e 0.1637 0.3766 0.2027 0.025 1.
O15 O2- 4 e 0.3029 0.01 0.3085 0.023 1.
O16 O2- 4 e 0.1821 0.0061 0.1895 0.019 1.
O17 O2- 4 e 0.0152 0.6767 0.3098 0.015 1.
O18 O2- 4 e 0.5179 0.166 0.32 0.024 1.
O19 O2- 4 e 0.1517 0.565 0.2993 0.028 1.
O20 O2- 4 e 0.3609 0.539 0.2101 0.034 1.
O21 O2- 4 e 0.0757 0.135 0.1258 0.012 1.
O22 O2- 4 e 0.4198 0.146 0.3857 0.04 1.
O23 O2- 4 e 0.1798 0.6861 0.1903 0.018 1.
O24 O2- 4 e 0.6963 0.203 0.1866 0.033 1.
O25 O2- 4 e 0.0188 0.537 0.1973 0.046 1.
O26 O2- 4 e 0.4972 0.0522 0.204 0.023 1.
O27 O2- 4 e 0.0679 0.857 0.0903 0.055 1.
O28 O2- 4 e 0.5797 0.37 0.1008 0.026 1.
O29 O2- 4 e 0.0552 0.205 0.0006 0.05 1.
O30 O2- 4 e 0.465 0.246 0.0215 0.041 1.
O31 O2- 4 e 0.0514 0.473 0.4071 0.036 1.
O32 O2- 4 e 0.4502 0.476 0.0608 0.04 1.
O33 O2- 4 e 0.0317 0.2498 0.3649 0.022 1.
O34 O2- 4 e 0.4727 0.309 0.1578 0.053 1.
O35 O2- 4 e 0.1142 0.861 0.408 0.092 1.
O36 O2- 4 e 0.625 0.363 0.4415 0.034 1.
O37 O2- 4 e 0.7604 0.462 0.07 0.081 1.
O38 O2- 4 e 0.2487 0.557 0.5715 0.071 1.
O39 O2- 4 e 0.773 0.24 0.081 0.108 1.
O40 O2- 4 e 0.288 0.73 0.1138 0.057 1.
O41 O2- 4 e 0.8244 0.3644 0.1988 0.026 1.
O42 O2- 4 e 0.6362 0.411 0.313 0.062 1.
O43 O2- 4 e 0.0783 0.5514 0.0758 0.019 1.
O44 O2- 4 e 0.578 0.054 0.094 0.018 0.5
O45 O2- 4 e 0.581 0.11 0.145 0.018 0.5
O46 O2- 4 e 0.557 0.027 0.025 0.018 0.5
loop_
_atom_site_aniso_label
_atom_site_aniso_type_symbol
_atom_site_aniso_U_11
_atom_site_aniso_U_22
_atom_site_aniso_U_33
_atom_site_aniso_U_12
_atom_site_aniso_U_13
_atom_site_aniso_U_23
V1 V5+ 0.02 0.011 0.03 -0.008 0.012 -0.004
V2 V5+ 0.013 0.022 0.022 0.001 0.002 0.007
V3 V5+ 0.024 0.007 0.019 -0.004 0.01 0.001
V4 V5+ 0.013 0.025 0.018 0. 0.004 -0.002
Bi1 Bi3+ 0.016 0.0131 0.022 -0.0007 0.01 -0.0004
Bi2 Bi3+ 0.0114 0.0177 0.0215 -0.0007 0.0088 0.0022
Bi3 Bi3+ 0.0138 0.0125 0.0188 0.0006 0.0068 0.0002
Bi4 Bi3+ 0.0102 0.0171 0.0213 0.0025 0.0076 -0.0007
Bi5 Bi3+ 0.0111 0.0207 0.0215 -0.0023 0.0043 -0.0014
Bi6 Bi3+ 0.0329 0.0169 0.0204 -0.0087 0.0099 -0.0039
Bi7 Bi3+ 0.0113 0.0155 0.0178 0.0011 0.0017 0.0004
Bi8 Bi3+ 0.0105 0.0179 0.0196 0.0001 0.0052 -0.0019
Bi9 Bi3+ 0.0159 0.0156 0.0178 0.0024 0.0054 -0.0019
Bi10 Bi3+ 0.0203 0.0187 0.0168 -0.0069 0.0019 -0.0015
Bi11 Bi3+ 0.0153 0.0174 0.0161 0.0007 0.0048 0.0016
Bi12 Bi3+ 0.0163 0.0631 0.0161 0.0062 0.0049 -0.0026
Bi13 Bi3+ 0.0132 0.0156 0.0189 0.0006 0.0062 0.0031
Bi14 Bi3+ 0.0151 0.0186 0.0178 0.0003 0.0074 0.0006
Bi15 Bi3+ 0.0291 0.0205 0.034 0.0101 0.0125 0.0086
Bi16 Bi3+ 0.0113 0.0161 0.0217 0.0026 0.0036 0.0022
Bi17 Bi3+ 0.0248 0.0139 0.027 -0.002 -0.0003 -0.0001
Bi18 Bi3+ 0.0177 0.0144 0.0245 -0.0036 0.0063 0.0008
Bi19 Bi3+ 0.0142 0.0139 0.0211 -0.004 0.006 -0.0044
Bi20 Bi3+ 0.0129 0.0171 0.0222 0.0033 0.0086 0.0021
Bi21 Bi3+ 0.0123 0.0141 0.0225 0.002 0.0073 0.0009
Bi22 Bi3+ 0.0103 0.0295 0.022 0.0032 0.0059 0.002
Bi23 Bi3+ 0.0099 0.0199 0.0173 0.0005 0.0039 0.
#End of TTdata_415113-ICSD