
#(C) 2022 by FIZ Karlsruhe - Leibniz Institute for Information Infrastructure.  All rights reserved.
data_281619-ICSD
_database_code_ICSD 281619
_audit_creation_date 2004-10-01
_audit_update_record 2012-02-01
_chemical_name_common 'Vanadium oxide (6/13)'
_chemical_formula_structural 'V6 O13'
_chemical_formula_sum 'O13 V6'
_chemical_name_structure_type V6O13(mP38)
_exptl_crystal_density_diffrn 3.89
_diffrn_ambient_temperature 95.
_citation_title 'Low-temperature structure of V6 O13'
loop_
_citation_id
_citation_journal_full
_citation_year
_citation_journal_volume
_citation_page_first
_citation_page_last
_citation_journal_id_ASTM
primary 'Acta Crystallographica, Section B: Structural Science' 2003 59 747 752
ASBSDK
loop_
_citation_author_citation_id
_citation_author_name
primary 'Hoewing, J.'
primary 'Gustafsson, T.'
primary 'Thomas, J.O.'
_cell_length_a 10.0605
_cell_length_b 3.7108
_cell_length_c 11.9633
_cell_angle_alpha 90.
_cell_angle_beta 100.927
_cell_angle_gamma 90.
_cell_volume 438.52
_cell_formula_units_Z 2
_space_group_name_H-M_alt 'P 1 c 1'
_space_group_IT_number 7
loop_
_space_group_symop_id
_space_group_symop_operation_xyz
1 'x, -y, z+1/2'
2 'x, y, z'
loop_
_atom_type_symbol
_atom_type_oxidation_number
V5+ 5
V4+ 4
O2- -2
loop_
_atom_site_label
_atom_site_type_symbol
_atom_site_symmetry_multiplicity
_atom_site_Wyckoff_symbol
_atom_site_fract_x
_atom_site_fract_y
_atom_site_fract_z
_atom_site_U_iso_or_equiv
_atom_site_occupancy
V1 V5+ 2 a 0.00293 0.19453 0.29596 0.00427 1.
V2 V5+ 2 a 0. 0.26558 0. 0.00333 1.
V3 V4+ 2 a 0.63737 0.24925 0.22433 0.0018 1.
V4 V4+ 2 a 0.36545 0.2523 0.0505 0.00166 1.
V5 V4+ 2 a 0.63392 0.74845 0.42207 0.0019 1.
V6 V4+ 2 a 0.36707 0.24884 0.3527 0.00172 1.
O1 O2- 2 a 0.0002 0.244 0.45663 0.00379 1.
O2 O2- 2 a 0.61253 0.7489 0.25448 0.00325 1.
O3 O2- 2 a 0.59106 0.2488 0.38623 0.00316 1.
O4 O2- 2 a 0.00037 0.2572 0.13797 0.00579 1.
O5 O2- 2 a 0.80484 0.2472 0.25345 0.0042 1.
O6 O2- 2 a 0.80067 0.7456 0.45805 0.0043 1.
O7 O2- 2 a 0.59366 0.2501 0.07491 0.00381 1.
O8 O2- 2 a 0.00129 0.7405 0.31141 0.00434 1.
O9 O2- 2 a 0.3882 0.2488 0.51888 0.00328 1.
O10 O2- 2 a 0.41002 0.7484 0.38797 0.0031 1.
O11 O2- 2 a 0.19795 0.2543 0.02229 0.0043 1.
O12 O2- 2 a 0.19897 0.2455 0.31768 0.0042 1.
O13 O2- 2 a 0.40833 0.2501 0.19826 0.0039 1.
loop_
_atom_site_aniso_label
_atom_site_aniso_type_symbol
_atom_site_aniso_U_11
_atom_site_aniso_U_22
_atom_site_aniso_U_33
_atom_site_aniso_U_12
_atom_site_aniso_U_13
_atom_site_aniso_U_23
V1 V5+ 0.0028 0.00449 0.00536 0. 0.00032 -0.00182
V2 V5+ 0.00273 0.00269 0.00445 -0.00004 0.00038 -0.0021
V3 V4+ 0.00193 0.00166 0.00183 0. 0.00041 0.00004
V4 V4+ 0.00172 0.00182 0.00149 0.00004 0.00044 -0.00001
V5 V4+ 0.00162 0.0015 0.00249 -0.00003 0.00013 0.
V6 V4+ 0.00177 0.00137 0.00198 -0.00003 0.00026 0.00006
O1 O2- 0.0042 0.0033 0.0038 0.0004 0.0008 -0.0027
O2 O2- 0.0044 0.0021 0.0033 0.0002 0.0009 0.0001
O3 O2- 0.0041 0.0018 0.0035 -0.0001 0.0005 0.0001
O4 O2- 0.0048 0.0098 0.0029 -0.0002 0.00111 -0.0037
O5 O2- 0.003 0.0046 0.0052 0.0003 0.0012 -0.0004
O6 O2- 0.0032 0.0043 0.0054 0.0001 0.0005 -0.0001
O7 O2- 0.0042 0.0038 0.0034 -0.0003 0.0008 0.
O8 O2- 0.0057 0.0017 0.0057 -0.0005 0.0012 0.0005
O9 O2- 0.0049 0.0022 0.0028 0.0005 0.0009 0.0003
O10 O2- 0.0038 0.0022 0.0035 -0.0001 0.001 0.0001
O11 O2- 0.0023 0.0048 0.0058 -0.0002 0.0004 -0.0003
O12 O2- 0.0018 0.0055 0.005 -0.0005 0. -0.0003
O13 O2- 0.005 0.0042 0.0028 0.0004 0.0012 0.0001
#End of TTdata_281619-ICSD