
#(C) 2022 by FIZ Karlsruhe - Leibniz Institute for Information Infrastructure.  All rights reserved.
data_51213-ICSD
_database_code_ICSD 51213
_audit_creation_date 2002-04-01
_chemical_name_common 'Vanadium(IV) oxide'
_chemical_formula_structural 'V O2'
_chemical_formula_sum 'O2 V1'
_exptl_crystal_density_diffrn 4.03
_diffrn_ambient_temperature 298.
_citation_title 'Crystal structures and transition mechanism of V O2(A)'
loop_
_citation_id
_citation_journal_full
_citation_year
_citation_journal_volume
_citation_page_first
_citation_page_last
_citation_journal_id_ASTM
primary 'Journal of Solid State Chemistry' 1998 141 594 598 JSSCBI
loop_
_citation_author_citation_id
_citation_author_name
primary 'Oka, Y.'
primary 'Sato, S.'
primary 'Yao, T.'
primary 'Yamamoto, N.'
_cell_length_a 8.4403
_cell_length_b 8.4403
_cell_length_c 7.666
_cell_angle_alpha 90.
_cell_angle_beta 90.
_cell_angle_gamma 90.
_cell_volume 546.12
_cell_formula_units_Z 16
_space_group_name_H-M_alt 'P 4/n c c Z'
_space_group_IT_number 130
loop_
_space_group_symop_id
_space_group_symop_operation_xyz
1 'y+1/2, x+1/2, -z+1/2'
2 '-y, x+1/2, -z'
3 'y+1/2, -x, -z'
4 '-y, -x, -z+1/2'
5 'x+1/2, y+1/2, -z'
6 '-x, y+1/2, -z+1/2'
7 'x+1/2, -y, -z+1/2'
8 '-x, -y, -z'
9 '-y+1/2, -x+1/2, z+1/2'
10 'y, -x+1/2, z'
11 '-y+1/2, x, z'
12 'y, x, z+1/2'
13 '-x+1/2, -y+1/2, z'
14 'x, -y+1/2, z+1/2'
15 '-x+1/2, y, z+1/2'
16 'x, y, z'
loop_
_atom_type_symbol
_atom_type_oxidation_number
V4+ 4
O2- -2
loop_
_atom_site_label
_atom_site_type_symbol
_atom_site_symmetry_multiplicity
_atom_site_Wyckoff_symbol
_atom_site_fract_x
_atom_site_fract_y
_atom_site_fract_z
_atom_site_B_iso_or_equiv
_atom_site_occupancy
V1 V4+ 16 g 0.22455 0.55182 0.12939 . 1.
O1 O2- 16 g 0.2481 0.5961 0.3776 . 1.
O2 O2- 16 g 0.0892 0.0901 0.1268 . 1.
loop_
_atom_site_aniso_label
_atom_site_aniso_type_symbol
_atom_site_aniso_U_11
_atom_site_aniso_U_22
_atom_site_aniso_U_33
_atom_site_aniso_U_12
_atom_site_aniso_U_13
_atom_site_aniso_U_23
V1 V4+ 0.0056 0.0066 0.0037 0.0007 -0.0001 0.
O1 O2- 0.0098 0.008 0.0046 -0.0007 -0.001 -0.0008
O2 O2- 0.0094 0.0098 0.0105 0.0016 -0.001 0.
#End of TTdata_51213-ICSD