
#(C) 2022 by FIZ Karlsruhe - Leibniz Institute for Information Infrastructure.  All rights reserved.
data_66584-ICSD
_database_code_ICSD 66584
_audit_creation_date 1994-01-19
_audit_update_record 2004-04-01
_chemical_name_common 'Vanadium oxide (5/9)'
_chemical_formula_structural 'V5 O9'
_chemical_formula_sum 'O9 V5'
_exptl_crystal_density_diffrn 4.73
_diffrn_ambient_temperature 299.
_citation_title 'Valence ordering in V5 O9 below 120K'
loop_
_citation_id
_citation_journal_full
_citation_year
_citation_journal_volume
_citation_page_first
_citation_page_last
_citation_journal_id_ASTM
primary 'Journal of Solid State Chemistry' 1991 92 380 385 JSSCBI
loop_
_citation_author_citation_id
_citation_author_name
primary 'le Page, Y.'
primary 'Bordet, P.'
primary 'Marezio, M.'
_cell_length_a 7.002
_cell_length_b 8.3516
_cell_length_c 10.9052
_cell_angle_alpha 91.91
_cell_angle_beta 108.39
_cell_angle_gamma 110.5
_cell_volume 559.35
_cell_formula_units_Z 4
_space_group_name_H-M_alt 'B -1'
_space_group_IT_number 2
loop_
_space_group_symop_id
_space_group_symop_operation_xyz
1 '-x, -y, -z'
2 'x, y, z'
3 '-x+1/2, -y, -z+1/2'
4 'x+1/2, y, z+1/2'
loop_
_atom_type_symbol
_atom_type_oxidation_number
V3+ 3.6
O2- -2
loop_
_atom_site_label
_atom_site_type_symbol
_atom_site_symmetry_multiplicity
_atom_site_Wyckoff_symbol
_atom_site_fract_x
_atom_site_fract_y
_atom_site_fract_z
_atom_site_B_iso_or_equiv
_atom_site_occupancy
V1 V3+ 2 d 0.75 0. 0.75 . 1.
V2 V3+ 4 i 0.57992 0.79196 0.92499 . 1.
V3 V3+ 4 i 0.43492 0.57526 0.11119 . 1.
V4 V3+ 2 b 0.25 0. 0.75 . 1.
V5 V3+ 4 i 0.08668 0.79704 0.92329 . 1.
V6 V3+ 4 i 0.93541 0.57951 0.10855 . 1.
O1 O2- 4 i 0.4864 0.92074 0.29249 . 1.
O2 O2- 4 i 0.3027 0.67735 0.45282 . 1.
O3 O2- 4 i 0.344 0.86266 0.87832 . 1.
O4 O2- 4 i 0.1759 0.63329 0.04135 . 1.
O5 O2- 4 i 0.2119 0.97698 0.06285 . 1.
O6 O2- 4 i 0.0485 0.75928 0.2364 . 1.
O7 O2- 4 i 0.8721 0.54041 0.40543 . 1.
O8 O2- 4 i 0.6197 0.80036 0.10888 . 1.
O9 O2- 4 i 0.482 0.58155 0.2815 . 1.
loop_
_atom_site_aniso_label
_atom_site_aniso_type_symbol
_atom_site_aniso_U_11
_atom_site_aniso_U_22
_atom_site_aniso_U_33
_atom_site_aniso_U_12
_atom_site_aniso_U_13
_atom_site_aniso_U_23
V1 V3+ 0.056 0.0598 0.0604 0.0304 0.0187 0.0097
V2 V3+ 0.0484 0.0491 0.0529 0.0218 0.0222 0.0133
V3 V3+ 0.0461 0.0473 0.0462 0.0226 0.0141 0.0049
V4 V3+ 0.0517 0.0539 0.0605 0.0259 0.0279 0.023
V5 V3+ 0.0514 0.0484 0.0656 0.0249 0.0285 0.0256
V6 V3+ 0.0417 0.0478 0.0431 0.0149 0.0183 0.008
O1 O2- 0.073 0.085 0.081 0.041 0.038 0.031
O2 O2- 0.056 0.065 0.069 0.025 0.022 0.02
O3 O2- 0.064 0.077 0.08 0.038 0.036 0.031
O4 O2- 0.049 0.066 0.06 0.029 0.021 0.02
O5 O2- 0.076 0.06 0.061 0.02 0.027 0.007
O6 O2- 0.08 0.068 0.065 0.029 0.029 0.012
O7 O2- 0.063 0.056 0.067 0.025 0.028 0.012
O8 O2- 0.078 0.067 0.058 0.023 0.026 0.013
O9 O2- 0.076 0.074 0.064 0.028 0.023 0.018
#End of TTdata_66584-ICSD