
#(C) 2022 by FIZ Karlsruhe - Leibniz Institute for Information Infrastructure.  All rights reserved.
data_190598-ICSD
_database_code_ICSD 190598
_audit_creation_date 2014-08-01
_chemical_name_common 'Dicopper oxide'
_chemical_formula_structural 'Cu2 O'
_chemical_formula_sum 'Cu2 O1'
_exptl_crystal_density_diffrn 6.33
_diffrn_ambient_pressure 1300000.
_citation_title 'Structural transitions in Cu2 O at pressures up to 11 GPa'
loop_
_citation_id
_citation_journal_full
_citation_year
_citation_journal_volume
_citation_page_first
_citation_page_last
_citation_journal_id_ASTM
primary 'Journal of Physics: Condensed Matter' 2003 15 7227 7235 JCOMEL
loop_
_citation_author_citation_id
_citation_author_name
primary 'Machon, D.'
primary 'Sinitsyn, V.V.'
primary 'Dmitriev, V.P.'
primary 'Bdikin, I.K.'
primary 'Dubrovinsky, L.S.'
primary 'Kuleshov, I.V.'
primary 'Ponyatovsky, E.G.'
primary 'Weber, H.P.'
_cell_length_a 4.195
_cell_length_b 4.195
_cell_length_c 4.267
_cell_angle_alpha 90.
_cell_angle_beta 90.
_cell_angle_gamma 90.
_cell_volume 75.09
_cell_formula_units_Z 2
_space_group_name_H-M_alt 'P 42/n n m Z'
_space_group_IT_number 134
loop_
_space_group_symop_id
_space_group_symop_operation_xyz
1 'y, x, -z'
2 'y+1/2, -x, -z+1/2'
3 '-y, x+1/2, -z+1/2'
4 '-y+1/2, -x+1/2, -z'
5 '-y, -x, z'
6 '-y+1/2, x, z+1/2'
7 'y, -x+1/2, z+1/2'
8 'y+1/2, x+1/2, z'
9 'x+1/2, y+1/2, -z'
10 '-x+1/2, y, -z+1/2'
11 'x, -y+1/2, -z+1/2'
12 '-x, -y, -z'
13 '-x+1/2, -y+1/2, z'
14 'x+1/2, -y, z+1/2'
15 '-x, y+1/2, z+1/2'
16 'x, y, z'
loop_
_atom_type_symbol
_atom_type_oxidation_number
Cu1+ 1
O2- -2
loop_
_atom_site_label
_atom_site_type_symbol
_atom_site_symmetry_multiplicity
_atom_site_Wyckoff_symbol
_atom_site_fract_x
_atom_site_fract_y
_atom_site_fract_z
_atom_site_B_iso_or_equiv
_atom_site_occupancy
Cu1 Cu1+ 4 f 0. 0. 0. . 1.
O1 O2- 2 a 0.25 0.75 0.25 . 1.
#End of TTdata_190598-ICSD