
#(C) 2022 by FIZ Karlsruhe - Leibniz Institute for Information Infrastructure.  All rights reserved.
data_62117-ICSD
_database_code_ICSD 62117
_audit_creation_date 1988-02-22
_chemical_name_common 'Vanadium oxide (6/13) - beta'
_chemical_formula_structural 'V6 O13'
_chemical_formula_sum 'O13 V6'
_exptl_crystal_density_diffrn 3.91
_citation_title 'High-resolution electron microscopic study of V6O13'
loop_
_citation_id
_citation_journal_full
_citation_year
_citation_journal_volume
_citation_page_first
_citation_page_last
_citation_journal_id_ASTM
primary 'Journal of Solid State Chemistry' 1985 56 318 324 JSSCBI
loop_
_citation_author_citation_id
_citation_author_name
primary 'Ohno, T.'
primary 'Nakamura, Y.'
primary 'Nagakura, S.'
_cell_length_a 11.922
_cell_length_b 19.912
_cell_length_c 3.68
_cell_angle_alpha 90.
_cell_angle_beta 90.
_cell_angle_gamma 90.
_cell_volume 873.6
_cell_formula_units_Z 4
_space_group_name_H-M_alt 'C m m a'
_space_group_IT_number 67
loop_
_space_group_symop_id
_space_group_symop_operation_xyz
1 'x+1/2, y, -z'
2 'x+1/2, -y, z'
3 '-x, y, z'
4 '-x, -y, -z'
5 '-x+1/2, -y, z'
6 '-x+1/2, y, -z'
7 'x, -y, -z'
8 'x, y, z'
9 'x, y+1/2, -z'
10 'x, -y+1/2, z'
11 '-x+1/2, y+1/2, z'
12 '-x+1/2, -y+1/2, -z'
13 '-x, -y+1/2, z'
14 '-x, y+1/2, -z'
15 'x+1/2, -y+1/2, -z'
16 'x+1/2, y+1/2, z'
loop_
_atom_type_symbol
_atom_type_oxidation_number
V0+ 0
O0+ 0
loop_
_atom_site_label
_atom_site_type_symbol
_atom_site_symmetry_multiplicity
_atom_site_Wyckoff_symbol
_atom_site_fract_x
_atom_site_fract_y
_atom_site_fract_z
_atom_site_B_iso_or_equiv
_atom_site_occupancy
V1 V0+ 16 o 0.15 0.07 0.25 . 1.
V2 V0+ 8 n 0.14 0.25 0.25 . 1.
O1 O0+ 16 o 0.32 0.05 0.25 . 1.
O2 O0+ 16 o 0.14 0.15 0.25 . 1.
O3 O0+ 8 n 0.32 0.25 0.25 . 1.
O4 O0+ 8 m 0. 0.05 0.25 . 1.
O5 O0+ 4 g 0. 0.25 0.25 . 1.
#End of TTdata_62117-ICSD