
#(C) 2022 by FIZ Karlsruhe - Leibniz Institute for Information Infrastructure.  All rights reserved.
data_157496-ICSD
_database_code_ICSD 157496
_audit_creation_date 2008-02-01
_chemical_name_common 'Bismuth vanadium oxide (0.8/0.2/1.7)'
_chemical_formula_structural '(Bi0.8 V0.2) O1.7'
_chemical_formula_sum 'Bi0.8 O1.7 V0.2'
_chemical_name_structure_type BiPr2O4.5
_exptl_crystal_density_diffrn 8.09
_diffrn_ambient_temperature 293.
_citation_title 'Bi8 V2 O17 - a stable phase in the (Bi2 O3) - (V2 O5) system'
loop_
_citation_id
_citation_journal_full
_citation_year
_citation_journal_volume
_citation_page_first
_citation_page_last
_citation_journal_id_ASTM
primary 'Materials Science' 2006 24 23 30 MSCJDS
loop_
_citation_author_citation_id
_citation_author_name
primary 'Wrobel, W.'
primary 'Krok, F.'
primary 'Abrahams, I.'
primary 'Kozanecka-Szmigiel, A.'
primary 'Malys, M.'
primary 'Chan, S.C.M.'
primary 'Dygas, J.R.'
_cell_length_a 3.815
_cell_length_b 3.815
_cell_length_c 9.99
_cell_angle_alpha 90.
_cell_angle_beta 90.
_cell_angle_gamma 120.
_cell_volume 125.92
_cell_formula_units_Z 3
_space_group_name_H-M_alt 'R -3 m H'
_space_group_IT_number 166
loop_
_space_group_symop_id
_space_group_symop_operation_xyz
1 'x-y, -y, -z'
2 '-x, -x+y, -z'
3 'y, x, -z'
4 'x-y, x, -z'
5 'y, -x+y, -z'
6 '-x, -y, -z'
7 '-x+y, y, z'
8 'x, x-y, z'
9 '-y, -x, z'
10 '-x+y, -x, z'
11 '-y, x-y, z'
12 'x, y, z'
13 'x-y+2/3, -y+1/3, -z+1/3'
14 '-x+2/3, -x+y+1/3, -z+1/3'
15 'y+2/3, x+1/3, -z+1/3'
16 'x-y+2/3, x+1/3, -z+1/3'
17 'y+2/3, -x+y+1/3, -z+1/3'
18 '-x+2/3, -y+1/3, -z+1/3'
19 '-x+y+2/3, y+1/3, z+1/3'
20 'x+2/3, x-y+1/3, z+1/3'
21 '-y+2/3, -x+1/3, z+1/3'
22 '-x+y+2/3, -x+1/3, z+1/3'
23 '-y+2/3, x-y+1/3, z+1/3'
24 'x+2/3, y+1/3, z+1/3'
25 'x-y+1/3, -y+2/3, -z+2/3'
26 '-x+1/3, -x+y+2/3, -z+2/3'
27 'y+1/3, x+2/3, -z+2/3'
28 'x-y+1/3, x+2/3, -z+2/3'
29 'y+1/3, -x+y+2/3, -z+2/3'
30 '-x+1/3, -y+2/3, -z+2/3'
31 '-x+y+1/3, y+2/3, z+2/3'
32 'x+1/3, x-y+2/3, z+2/3'
33 '-y+1/3, -x+2/3, z+2/3'
34 '-x+y+1/3, -x+2/3, z+2/3'
35 '-y+1/3, x-y+2/3, z+2/3'
36 'x+1/3, y+2/3, z+2/3'
loop_
_atom_type_symbol
_atom_type_oxidation_number
Bi3+ 3
V5+ 5
O2- -2
loop_
_atom_site_label
_atom_site_type_symbol
_atom_site_symmetry_multiplicity
_atom_site_Wyckoff_symbol
_atom_site_fract_x
_atom_site_fract_y
_atom_site_fract_z
_atom_site_U_iso_or_equiv
_atom_site_occupancy
Bi1 Bi3+ 3 a 0. 0. 0. 0.004 0.8
V1 V5+ 3 a 0. 0. 0. 0.004 0.2
O1 O2- 6 c 0. 0. 0.24133 0.031 0.85
loop_
_atom_site_aniso_label
_atom_site_aniso_type_symbol
_atom_site_aniso_U_11
_atom_site_aniso_U_22
_atom_site_aniso_U_33
_atom_site_aniso_U_12
_atom_site_aniso_U_13
_atom_site_aniso_U_23
Bi1 Bi3+ 0.0043 0.0043 0.0034 0.0022 0. 0.
V1 V5+ 0.0043 0.0043 0.0034 0.0022 0. 0.
O1 O2- 0.04 0.04 0.01 0.021 0. 0.
#End of TTdata_157496-ICSD