
#(C) 2022 by FIZ Karlsruhe - Leibniz Institute for Information Infrastructure.  All rights reserved.
data_28009-ICSD
_database_code_ICSD 28009
_audit_creation_date 1986-09-25
_chemical_name_common 'Bismuth oxide (2/2.5)'
_chemical_formula_structural 'Bi2 O2.5'
_chemical_formula_sum 'Bi2 O2.5'
_exptl_crystal_density_diffrn 9.
_citation_title 'The Structure of beta-Bi2 O2.5 Thin Films'
loop_
_citation_id
_citation_journal_full
_citation_year
_citation_journal_volume
_citation_page_first
_citation_page_last
_citation_journal_id_ASTM
primary Kristallografiya 1971 16 515 519 KRISAJ
loop_
_citation_author_citation_id
_citation_author_name
primary 'Zav'yalova, A.A. (Zavyalova, A.A.)'
primary 'Imamov, R.M.'
_cell_length_a 7.75
_cell_length_b 7.75
_cell_length_c 5.63
_cell_angle_alpha 90.
_cell_angle_beta 90.
_cell_angle_gamma 90.
_cell_volume 338.15
_cell_formula_units_Z 4
_space_group_name_H-M_alt 'P -4 21 c'
_space_group_IT_number 114
loop_
_space_group_symop_id
_space_group_symop_operation_xyz
1 'y+1/2, x+1/2, z+1/2'
2 'y, -x, -z'
3 '-y+1/2, -x+1/2, z+1/2'
4 '-y, x, -z'
5 'x+1/2, -y+1/2, -z+1/2'
6 '-x, -y, z'
7 '-x+1/2, y+1/2, -z+1/2'
8 'x, y, z'
loop_
_atom_type_symbol
_atom_type_oxidation_number
Bi2+ 2.5
O2- -2
loop_
_atom_site_label
_atom_site_type_symbol
_atom_site_symmetry_multiplicity
_atom_site_Wyckoff_symbol
_atom_site_fract_x
_atom_site_fract_y
_atom_site_fract_z
_atom_site_B_iso_or_equiv
_atom_site_occupancy
Bi1 Bi2+ 8 e 0.246 0.021 0.25 1.02 1.
O1 O2- 8 e 0.191 0.25 0.033 2.52 0.75
O2 O2- 4 d 0. 0.5 0.1 2.52 1.
#End of TTdata_28009-ICSD