
#(C) 2022 by FIZ Karlsruhe - Leibniz Institute for Information Infrastructure.  All rights reserved.
data_422450-ICSD
_database_code_ICSD 422450
_audit_creation_date 2012-08-01
_chemical_name_common 'Dibismuth trioxide - HP, metastable'
_chemical_formula_structural 'Bi2 O3'
_chemical_formula_sum 'Bi2 O3'
_chemical_name_structure_type Bi2O3(P31c)
_exptl_crystal_density_diffrn 9.53
_diffrn_ambient_temperature 298.
_diffrn_ambient_pressure 300000.
_citation_title 'High-pressure structural evolution of HP - Bi2 O3'
loop_
_citation_id
_citation_journal_full
_citation_year
_citation_journal_volume
_citation_page_first
_citation_page_last
_citation_journal_id_ASTM
primary 'Physical Review B: Condensed Matter and Materials Physics' 2011 83 1 9
PRBMDO
loop_
_citation_author_citation_id
_citation_author_name
primary 'Locherer, T.'
primary 'Prasad, D.L.V.K.'
primary 'Dinnebier, R.'
primary 'Wedig, U.'
primary 'Jansen, M.'
primary 'Garbarino, G.'
primary 'Hansen, T.'
_cell_length_a 7.726
_cell_length_b 7.726
_cell_length_c 6.28
_cell_angle_alpha 90.
_cell_angle_beta 90.
_cell_angle_gamma 120.
_cell_volume 324.64
_cell_formula_units_Z 4
_space_group_name_H-M_alt 'P 3 1 c'
_space_group_IT_number 159
loop_
_space_group_symop_id
_space_group_symop_operation_xyz
1 '-x, -x+y, z+1/2'
2 'x-y, -y, z+1/2'
3 'y, x, z+1/2'
4 '-x+y, -x, z'
5 '-y, x-y, z'
6 'x, y, z'
loop_
_atom_type_symbol
_atom_type_oxidation_number
Bi3+ 3
O2- -2
loop_
_atom_site_label
_atom_site_type_symbol
_atom_site_symmetry_multiplicity
_atom_site_Wyckoff_symbol
_atom_site_fract_x
_atom_site_fract_y
_atom_site_fract_z
_atom_site_B_iso_or_equiv
_atom_site_occupancy
Bi1 Bi3+ 6 c 0.338 0.168 0.226 . 1.
Bi2 Bi3+ 2 b 0.33333 0.66667 0.25 . 1.
O1 O2- 6 c 0.081 0.502 0.486 . 1.
O2 O2- 6 c 0.155 0.31 0.114 . 1.
#End of TTdata_422450-ICSD