
#(C) 2022 by FIZ Karlsruhe - Leibniz Institute for Information Infrastructure.  All rights reserved.
data_189995-ICSD
_database_code_ICSD 189995
_audit_creation_date 2014-08-01
_chemical_name_common 'Dibismuth trioxide'
_chemical_formula_structural 'Bi2 O3'
_chemical_formula_sum 'Bi2 O3'
_chemical_name_structure_type Bi2O3(tP20)
_exptl_crystal_density_diffrn 9.17
_diffrn_ambient_temperature 297.
_citation_title
'Neutron total scattering study of the delta and beta phases of Bi2 O3'
loop_
_citation_id
_citation_journal_full
_citation_year
_citation_journal_volume
_citation_page_first
_citation_page_last
_citation_journal_id_ASTM
primary 'Dalton Transactions' 2009 2009 8737 8745 DTARAF
loop_
_citation_author_citation_id
_citation_author_name
primary 'Hull, Stephen'
primary 'Norberg, Stefan T.'
primary 'Tucker, Matthew G.'
primary 'Eriksson, Sten G.'
primary 'Mohn, Chris E.'
primary 'Stolen, Svein'
_cell_length_a 7.7439
_cell_length_b 7.7439
_cell_length_c 5.6287
_cell_angle_alpha 90.
_cell_angle_beta 90.
_cell_angle_gamma 90.
_cell_volume 337.54
_cell_formula_units_Z 4
_space_group_name_H-M_alt 'P -4 21 c'
_space_group_IT_number 114
loop_
_space_group_symop_id
_space_group_symop_operation_xyz
1 'y+1/2, x+1/2, z+1/2'
2 'y, -x, -z'
3 '-y+1/2, -x+1/2, z+1/2'
4 '-y, x, -z'
5 'x+1/2, -y+1/2, -z+1/2'
6 '-x, -y, z'
7 '-x+1/2, y+1/2, -z+1/2'
8 'x, y, z'
loop_
_atom_type_symbol
_atom_type_oxidation_number
Bi3+ 3
O2- -2
loop_
_atom_site_label
_atom_site_type_symbol
_atom_site_symmetry_multiplicity
_atom_site_Wyckoff_symbol
_atom_site_fract_x
_atom_site_fract_y
_atom_site_fract_z
_atom_site_B_iso_or_equiv
_atom_site_occupancy
Bi1 Bi3+ 8 e 0.25462 0.01943 0.23897 . 1.
O1 O2- 8 e 0.313 0.2912 0.0312 . 1.
O2 O2- 4 d 0. 0.5 0.108 . 1.
loop_
_atom_site_aniso_label
_atom_site_aniso_type_symbol
_atom_site_aniso_U_11
_atom_site_aniso_U_22
_atom_site_aniso_U_33
_atom_site_aniso_U_12
_atom_site_aniso_U_13
_atom_site_aniso_U_23
Bi1 Bi3+ 0.0092 0.0064 0.0076 0.0009 -0.0012 -0.0024
O1 O2- 0.0116 0.0192 0.0166 0.0013 -0.0042 0.011
O2 O2- 0.0183 0.0059 0.0091 0.0018 0. 0.
#End of TTdata_189995-ICSD