
#(C) 2022 by FIZ Karlsruhe - Leibniz Institute for Information Infrastructure.  All rights reserved.
data_428197-ICSD
_database_code_ICSD 428197
_audit_creation_date 2018-02-01
_chemical_name_common 'Vanadium(IV/V) oxide (3.047/7)'
_chemical_formula_structural 'V3.047 O7'
_chemical_formula_sum 'O7 V3.047'
_exptl_crystal_density_diffrn 4.2
_diffrn_ambient_temperature 298.
_citation_title
'V3.047 O7, a new high-pressure oxide with the simpsonite structure'
loop_
_citation_id
_citation_journal_full
_citation_year
_citation_journal_volume
_citation_page_first
_citation_page_last
_citation_journal_id_ASTM
primary 'Inorganic Materials' 2016 52 902 908 INOMAF
loop_
_citation_author_citation_id
_citation_author_name
primary 'Zibrov, I.P.'
primary 'Filonenko, V.P.'
primary 'Sidorov, V.A.'
primary 'Lyapin, S.G.'
_cell_length_a 7.3514
_cell_length_b 7.3514
_cell_length_c 4.5146
_cell_angle_alpha 90.
_cell_angle_beta 90.
_cell_angle_gamma 120.
_cell_volume 211.3
_cell_formula_units_Z 2
_space_group_name_H-M_alt 'P 3'
_space_group_IT_number 143
loop_
_space_group_symop_id
_space_group_symop_operation_xyz
1 '-x+y, -x, z'
2 '-y, x-y, z'
3 'x, y, z'
loop_
_atom_type_symbol
_atom_type_oxidation_number
V4+ 4.667
O2- -2
V4+ 4
loop_
_atom_site_label
_atom_site_type_symbol
_atom_site_symmetry_multiplicity
_atom_site_Wyckoff_symbol
_atom_site_fract_x
_atom_site_fract_y
_atom_site_fract_z
_atom_site_U_iso_or_equiv
_atom_site_occupancy
V1 V4+ 3 d 0.4018 0.1153 0.07 0.00645 1.
V2 V4+ 3 d 0.3054 0.402 0.568 0.03929 1.
O1 O2- 3 d 0.0473 0.252 0.308 0.025 1.
O2 O2- 3 d 0.4729 0.3676 0.28 0.025 1.
O3 O2- 3 d 0.268 0.2082 0.78 0.025 1.
O4 O2- 3 d 0.0985 0.473 0.766 0.025 1.
O5 O2- 1 c 0.66667 0.33333 0.82 0.025 1.
O6 O2- 1 b 0.33333 0.66667 0.329 0.025 1.
V3 V4+ 1 a 0. 0. 0. 0.025 0.09418
V4 V4+ 1 a 0. 0. 0.5 0.025 0.0001
#End of TTdata_428197-ICSD