
#(C) 2022 by FIZ Karlsruhe - Leibniz Institute for Information Infrastructure.  All rights reserved.
data_92325-ICSD
_database_code_ICSD 92325
_audit_creation_date 2002-10-01
_chemical_name_common 'Copper(I) vanadium oxide (2.32/4/11)'
_chemical_formula_structural 'Cu2.324 V4 O11'
_chemical_formula_sum 'Cu2.324 O11 V4'
_exptl_crystal_density_diffrn 4.42
_citation_title
'The vanadium oxide bronze Cu2.33-x V4 O11. Solid state chemistry, XRD'
loop_
_citation_id
_citation_journal_full
_citation_year
_citation_journal_volume
_citation_page_first
_citation_page_last
_citation_journal_id_ASTM
primary 'Solid State Sciences' 2000 2 595 605 SSSCFJ
loop_
_citation_author_citation_id
_citation_author_name
primary 'Rozier, P.'
primary 'Satto, C.'
primary 'Galy, J.'
_cell_length_a 15.309
_cell_length_b 3.61
_cell_length_c 7.335
_cell_angle_alpha 90.
_cell_angle_beta 101.84
_cell_angle_gamma 90.
_cell_volume 396.75
_cell_formula_units_Z 2
_space_group_name_H-M_alt 'C 1 m 1'
_space_group_IT_number 8
loop_
_space_group_symop_id
_space_group_symop_operation_xyz
1 'x, -y, z'
2 'x, y, z'
3 'x+1/2, -y+1/2, z'
4 'x+1/2, y+1/2, z'
loop_
_atom_type_symbol
_atom_type_oxidation_number
Cu1+ 1
V4+ 4.92
O2- -2
loop_
_atom_site_label
_atom_site_type_symbol
_atom_site_symmetry_multiplicity
_atom_site_Wyckoff_symbol
_atom_site_fract_x
_atom_site_fract_y
_atom_site_fract_z
_atom_site_B_iso_or_equiv
_atom_site_occupancy
Cu1 Cu1+ 4 b 0.4213 0.203 0.7914 . 0.5
Cu2 Cu1+ 2 a 0.1685 0. 0.7326 . 0.332
Cu3 Cu1+ 4 b 0.1669 0.244 0.7915 . 0.328
Cu4 Cu1+ 2 a 0.6638 0. 0.853 . 0.336
V1 V4+ 2 a 0.30686 0. 0.13786 . 1.
V2 V4+ 2 a 0.0946 0. 0.15349 . 1.
V3 V4+ 2 a 0.7473 0. 0.44299 . 1.
V4 V4+ 2 a 0.52433 0. 0.44006 . 1.
O1 O2- 2 a 0.4194 0. 0.2977 . 1.
O2 O2- 2 a 0.2326 0. 0.3641 . 1.
O3 O2- 2 a 0.0493 0. 0.398 . 1.
O4 O2- 2 a 0. 0. 0. . 1.
O5 O2- 2 a 0.1742 0. 0.0041 . 1.
O6 O2- 2 a 0.3372 0. 0.9348 . 1.
O7 O2- 2 a 0.8416 0. 0.5888 . 1.
O8 O2- 2 a 0.6697 0. 0.5906 . 1.
O9 O2- 2 a 0.5049 0. 0.6542 . 1.
O10 O2- 2 a 0.6075 0. 0.2261 . 1.
O11 O2- 2 a 0.7915 0. 0.1925 . 1.
loop_
_atom_site_aniso_label
_atom_site_aniso_type_symbol
_atom_site_aniso_U_11
_atom_site_aniso_U_22
_atom_site_aniso_U_33
_atom_site_aniso_U_12
_atom_site_aniso_U_13
_atom_site_aniso_U_23
Cu1 Cu1+ 0.0218 0.1975 0.0222 -0.0266 0.0091 0.0123
Cu2 Cu1+ 0.0327 0.057 0.0103 0. 0.0102 0.
Cu3 Cu1+ 0.0308 0.0551 0.0339 0.0015 0.0049 -0.0353
Cu4 Cu1+ 0.0322 0.0469 0.0096 0. -0.0002 0.
V1 V4+ 0.0132 0.005 0.0146 0. 0.0076 0.
V2 V4+ 0.0072 0.0074 0.0147 0. 0.0034 0.
V3 V4+ 0.0109 0.0048 0.0149 0. 0.004 0.
V4 V4+ 0.0108 0.0043 0.0149 0. 0.0063 0.
O1 O2- 0.0093 0.0095 0.0238 0. 0.0021 0.
O2 O2- 0.0144 0.0034 0.0205 0. 0.0028 0.
O3 O2- 0.0123 0.0046 0.0191 0. 0.0017 0.
O4 O2- 0.0123 0.0199 0.0161 0. 0.0017 0.
O5 O2- 0.01 0.0214 0.0132 0. 0.0021 0.
O6 O2- 0.0217 0.0204 0.0113 0. 0.0056 0.
O7 O2- 0.016 0.0121 0.0211 0. -0.0018 0.
O8 O2- 0.0126 0.0301 0.0168 0. 0.0096 0.
O9 O2- 0.013 0.0145 0.0274 0. 0.0147 0.
O10 O2- 0.0103 0.0068 0.0173 0. 0.0067 0.
O11 O2- 0.0149 0.0062 0.0132 0. 0.0064 0.
#End of TTdata_92325-ICSD