
#(C) 2022 by FIZ Karlsruhe - Leibniz Institute for Information Infrastructure.  All rights reserved.
data_421856-ICSD
_database_code_ICSD 421856
_audit_creation_date 2011-08-01
_audit_update_record 2013-02-01
_chemical_name_common 'Dibismuth trioxide - R'
_chemical_formula_structural 'Bi2 O3'
_chemical_formula_sum 'Bi2 O3'
_chemical_name_structure_type Bi2O3(HP)
_exptl_crystal_density_diffrn 9.38
_diffrn_ambient_temperature 298.
_citation_title

;
High-pressure and high-temperature multianvil synthesis of metastable
polymorphs of Bi2 O3: crystal structure and electronic properties
;
loop_
_citation_id
_citation_journal_full
_citation_year
_citation_journal_volume
_citation_page_first
_citation_page_last
_citation_journal_id_ASTM
primary 'Physical Review B: Condensed Matter and Materials Physics' 2010 82 1 12
PRBMDO
loop_
_citation_author_citation_id
_citation_author_name
primary 'Ghedia, S.'
primary 'Locherer, T.'
primary 'Dinnebier, R.'
primary 'Prasad, D.L.V.K.'
primary 'Wedig, U.'
primary 'Jansen, M.'
primary 'Senyshyn, A.'
_cell_length_a 9.1102
_cell_length_b 7.3449
_cell_length_c 10.0918
_cell_angle_alpha 90.
_cell_angle_beta 102.121
_cell_angle_gamma 90.
_cell_volume 660.22
_cell_formula_units_Z 8
_space_group_name_H-M_alt 'P 1 21/c 1'
_space_group_IT_number 14
loop_
_space_group_symop_id
_space_group_symop_operation_xyz
1 'x, -y+1/2, z+1/2'
2 '-x, -y, -z'
3 '-x, y+1/2, -z+1/2'
4 'x, y, z'
loop_
_atom_type_symbol
_atom_type_oxidation_number
Bi3+ 3
O2- -2
loop_
_atom_site_label
_atom_site_type_symbol
_atom_site_symmetry_multiplicity
_atom_site_Wyckoff_symbol
_atom_site_fract_x
_atom_site_fract_y
_atom_site_fract_z
_atom_site_B_iso_or_equiv
_atom_site_occupancy
Bi1 Bi3+ 4 e 0.2068 0.5945 0.07 0.1 1.
Bi2 Bi3+ 4 e 0.5849 0.4025 0.1854 0.1 1.
Bi3 Bi3+ 4 e 0.069 0.1253 0.1614 0.1 1.
Bi4 Bi3+ 4 e 0.2936 0.3821 0.4314 0.1 1.
O1 O2- 4 e 0.0709 0.3679 0.327 0.1 1.
O2 O2- 4 e 0.5801 0.1548 0.4712 0.1 1.
O3 O2- 4 e 0.2202 0.0455 0.338 0.1 1.
O4 O2- 4 e 0.2761 0.3052 0.1121 0.1 1.
O5 O2- 4 e 0.2141 0.5573 0.5722 0.1 1.
O6 O2- 4 e 0.6943 0.14 0.2201 0.1 1.
#End of TTdata_421856-ICSD