
#(C) 2022 by FIZ Karlsruhe - Leibniz Institute for Information Infrastructure.  All rights reserved.
data_6114-ICSD
_database_code_ICSD 6114
_audit_creation_date 1980-01-01
_audit_update_record 2000-07-15
_chemical_name_common 'Copper vanadium oxide (0.6/2/5)'
_chemical_formula_structural 'Cu0.64 V2 O5'
_chemical_formula_sum 'Cu0.64 O5 V2'
_exptl_crystal_density_diffrn 3.76
_citation_title 'Untersuchung einer kupfereichen Phase Cu0.64 V2 O5'
loop_
_citation_id
_citation_journal_full
_citation_year
_citation_journal_volume
_citation_page_first
_citation_page_last
_citation_journal_id_ASTM
primary

;
Zeitschrift fuer Naturforschung, Teil B: Anorganische Chemie, Organische
Chemie, Biochemie, Biophysik, Biologie
; 1974 29 713 715 ZENBAX
loop_
_citation_author_citation_id
_citation_author_name
primary 'Christian, H.P.'
primary 'Mueller Buschbaum, H.'
_cell_length_a 11.313
_cell_length_b 4.804
_cell_length_c 3.613
_cell_angle_alpha 90.
_cell_angle_beta 90.
_cell_angle_gamma 90.
_cell_volume 196.36
_cell_formula_units_Z 2
_space_group_name_H-M_alt 'P m n m S'
_space_group_IT_number 59
loop_
_space_group_symop_id
_space_group_symop_operation_xyz
1 'x+1/2, -y, -z+1/2'
2 'x+1/2, -y, z+1/2'
3 'x, y, -z'
4 '-x, y, z'
5 '-x+1/2, -y, z+1/2'
6 '-x+1/2, -y, -z+1/2'
7 '-x, y, -z'
8 'x, y, z'
loop_
_atom_type_symbol
_atom_type_oxidation_number
Cu0+ 0
V0+ 0
O0+ 0
loop_
_atom_site_label
_atom_site_type_symbol
_atom_site_symmetry_multiplicity
_atom_site_Wyckoff_symbol
_atom_site_fract_x
_atom_site_fract_y
_atom_site_fract_z
_atom_site_B_iso_or_equiv
_atom_site_occupancy
Cu1 Cu0+ 2 b 0. 0.6385 0.5 . 0.64
V1 V0+ 4 e 0.1519 0.1078 0. . 1.
O1 O0+ 4 e 0.136 0.447 0. . 1.
O2 O0+ 4 e 0.322 0.012 0. . 1.
O3 O0+ 2 a 0. 0.983 0. . 1.
#End of TTdata_6114-ICSD