
#(C) 2022 by FIZ Karlsruhe - Leibniz Institute for Information Infrastructure.  All rights reserved.
data_291390-ICSD
_database_code_ICSD 291390
_audit_creation_date 2015-08-01
_chemical_name_common 'Copper oxide'
_chemical_formula_structural 'Cu O'
_chemical_formula_sum 'Cu1 O1'
_chemical_name_structure_type CuO(mS8)
_exptl_crystal_density_diffrn 6.5
_citation_title

;
Structural phase transitions in the kagome lattice based materials Cs2-x Rbx
Sn Cu3 F12 (x = 0, 0.5, 1.0, 1.5)
;
loop_
_citation_id
_citation_journal_full
_citation_year
_citation_journal_volume
_citation_page_first
_citation_page_last
_citation_journal_id_ASTM
primary CrystEngComm 2014 16 7419 7425 CRECF4
loop_
_citation_author_citation_id
_citation_author_name
primary 'Downie, L.J.'
primary 'Black, C.'
primary 'Ardashnikova, E.I.'
primary 'Tang, C.C.'
primary 'Vasiliev, A.N.'
primary 'Golovanov, A.N.'
primary 'Berdonosov, P.S.'
primary 'Dolgikh, V.A.'
primary 'Lightfoot, P.'
_cell_length_a 4.6869
_cell_length_b 3.424
_cell_length_c 5.1337
_cell_angle_alpha 90.
_cell_angle_beta 99.535
_cell_angle_gamma 90.
_cell_volume 81.25
_cell_formula_units_Z 4
_space_group_name_H-M_alt 'C 1 2/c 1'
_space_group_IT_number 15
loop_
_space_group_symop_id
_space_group_symop_operation_xyz
1 'x, -y, z+1/2'
2 '-x, -y, -z'
3 '-x, y, -z+1/2'
4 'x, y, z'
5 'x+1/2, -y+1/2, z+1/2'
6 '-x+1/2, -y+1/2, -z'
7 '-x+1/2, y+1/2, -z+1/2'
8 'x+1/2, y+1/2, z'
loop_
_atom_type_symbol
_atom_type_oxidation_number
Cu2+ 2
O2- -2
loop_
_atom_site_label
_atom_site_type_symbol
_atom_site_symmetry_multiplicity
_atom_site_Wyckoff_symbol
_atom_site_fract_x
_atom_site_fract_y
_atom_site_fract_z
_atom_site_U_iso_or_equiv
_atom_site_occupancy
Cu1 Cu2+ 4 c 0.25 0.25 0. 0.013 1.
O1 O2- 4 e 0. 0.0816 0.25 0.013 1.
#End of TTdata_291390-ICSD