
#(C) 2022 by FIZ Karlsruhe - Leibniz Institute for Information Infrastructure.  All rights reserved.
data_163495-ICSD
_database_code_ICSD 163495
_audit_creation_date 2009-08-01
_audit_update_record 2016-02-01
_chemical_name_common 'Vanadium oxide (14/6.16)'
_chemical_formula_structural 'V14 O6.16'
_chemical_formula_sum 'O6.16 V14'
_exptl_crystal_density_diffrn 6.23
_citation_title

;
Monoclinic superstructure V14 O6 of the tetragonal solid solution of oxygen in
vanadium
;
loop_
_citation_id
_citation_journal_full
_citation_year
_citation_journal_volume
_citation_page_first
_citation_page_last
_citation_journal_id_ASTM
primary 'JETP Letters' 2007 86 657 661 JTPLA2
loop_
_citation_author_citation_id
_citation_author_name
primary 'Gusev, A.I.'
primary 'Davydov, D.A.'
_cell_length_a 9.5536
_cell_length_b 2.9184
_cell_length_c 7.7622
_cell_angle_alpha 90.
_cell_angle_beta 90.32
_cell_angle_gamma 90.
_cell_volume 216.42
_cell_formula_units_Z 1
_space_group_name_H-M_alt 'C 1 2/m 1'
_space_group_IT_number 12
loop_
_space_group_symop_id
_space_group_symop_operation_xyz
1 '-x, y, -z'
2 '-x, -y, -z'
3 'x, -y, z'
4 'x, y, z'
5 '-x+1/2, y+1/2, -z'
6 '-x+1/2, -y+1/2, -z'
7 'x+1/2, -y+1/2, z'
8 'x+1/2, y+1/2, z'
loop_
_atom_type_symbol
_atom_type_oxidation_number
V0+ 0.88
O2- -2
loop_
_atom_site_label
_atom_site_type_symbol
_atom_site_symmetry_multiplicity
_atom_site_Wyckoff_symbol
_atom_site_fract_x
_atom_site_fract_y
_atom_site_fract_z
_atom_site_B_iso_or_equiv
_atom_site_occupancy
V1 V0+ 2 c 0. 0. 0.5 . 1.
V2 V0+ 4 i 0.1528 0. 0.0714 . 1.
V3 V0+ 4 i 0.2957 0. 0.6128 . 1.
V4 V0+ 4 i 0.4386 0. 0.1943 . 1.
O1 O2- 2 b 0. 0.5 0. . 1.
O2 O2- 4 i 0.7877 0. 0.1369 . 1.
O3 O2- 4 i 0.3571 0. 0.4186 . 0.02
O4 O2- 4 i 0.0714 0. 0.2857 . 0.02
#End of TTdata_163495-ICSD