
#(C) 2022 by FIZ Karlsruhe - Leibniz Institute for Information Infrastructure.  All rights reserved.
data_62979-ICSD
_database_code_ICSD 62979
_audit_creation_date 1988-12-19
_audit_update_record 2013-08-01
_chemical_name_common 'Bismuth oxide - beta'
_chemical_formula_structural 'Bi2 O3'
_chemical_formula_sum 'Bi2 O3'
_chemical_name_structure_type Bi2O3(tP20)
_chemical_name_mineral Sphaerobismoite
_exptl_crystal_density_diffrn 9.17
_citation_title
'The structure of beta - Bi2 O3 from powder neutron diffraction data.'
loop_
_citation_id
_citation_journal_full
_citation_year
_citation_journal_volume
_citation_page_first
_citation_page_last
_citation_journal_id_ASTM
primary 'Acta Crystallographica, Section C: Crystal Structure Communications'
1988 44 587 589 ACSCEE
loop_
_citation_author_citation_id
_citation_author_name
primary 'Blower, S.K.'
primary 'Greaves, C.'
_cell_length_a 7.741
_cell_length_b 7.741
_cell_length_c 5.634
_cell_angle_alpha 90.
_cell_angle_beta 90.
_cell_angle_gamma 90.
_cell_volume 337.61
_cell_formula_units_Z 4
_space_group_name_H-M_alt 'P -4 21 c'
_space_group_IT_number 114
loop_
_space_group_symop_id
_space_group_symop_operation_xyz
1 'y+1/2, x+1/2, z+1/2'
2 'y, -x, -z'
3 '-y+1/2, -x+1/2, z+1/2'
4 '-y, x, -z'
5 'x+1/2, -y+1/2, -z+1/2'
6 '-x, -y, z'
7 '-x+1/2, y+1/2, -z+1/2'
8 'x, y, z'
loop_
_atom_type_symbol
_atom_type_oxidation_number
Bi3+ 3
O2- -2
loop_
_atom_site_label
_atom_site_type_symbol
_atom_site_symmetry_multiplicity
_atom_site_Wyckoff_symbol
_atom_site_fract_x
_atom_site_fract_y
_atom_site_fract_z
_atom_site_B_iso_or_equiv
_atom_site_occupancy
Bi1 Bi3+ 8 e 0.0178 0.2539 0.2532 1.18 1.
O1 O2- 8 e 0.295 0.3074 0.027 1.7 1.
O2 O2- 4 d 0. 0.5 0.101 1.6 1.
#End of TTdata_62979-ICSD