
#(C) 2022 by FIZ Karlsruhe - Leibniz Institute for Information Infrastructure.  All rights reserved.
data_52732-ICSD
_database_code_ICSD 52732
_audit_creation_date 2003-04-01
_chemical_name_common 'Dibismuth oxide - beta'
_chemical_formula_structural 'Bi2 O3'
_chemical_formula_sum 'Bi2 O3'
_chemical_name_structure_type Bi2O3(tP20)
_exptl_crystal_density_diffrn 9.17
_citation_title 'The crystal structure of beta - Bi2 O3'
loop_
_citation_id
_citation_journal_full
_citation_year
_citation_journal_volume
_citation_page_first
_citation_page_last
_citation_journal_id_ASTM
primary 'Kungliga Tekniska Hoegskolans Handlingar' 1972 291 545 562 TRITAJ
loop_
_citation_author_citation_id
_citation_author_name
primary 'Aurivillius, B.'
primary 'Malmros, G.'
_cell_length_a 7.7425
_cell_length_b 7.7425
_cell_length_c 5.6313
_cell_angle_alpha 90.
_cell_angle_beta 90.
_cell_angle_gamma 90.
_cell_volume 337.58
_cell_formula_units_Z 4
_space_group_name_H-M_alt 'P -4 21 c'
_space_group_IT_number 114
loop_
_space_group_symop_id
_space_group_symop_operation_xyz
1 'y+1/2, x+1/2, z+1/2'
2 'y, -x, -z'
3 '-y+1/2, -x+1/2, z+1/2'
4 '-y, x, -z'
5 'x+1/2, -y+1/2, -z+1/2'
6 '-x, -y, z'
7 '-x+1/2, y+1/2, -z+1/2'
8 'x, y, z'
loop_
_atom_type_symbol
_atom_type_oxidation_number
Bi3+ 3
O2- -2
loop_
_atom_site_label
_atom_site_type_symbol
_atom_site_symmetry_multiplicity
_atom_site_Wyckoff_symbol
_atom_site_fract_x
_atom_site_fract_y
_atom_site_fract_z
_atom_site_B_iso_or_equiv
_atom_site_occupancy
Bi1 Bi3+ 8 e 0.0208 0.2559 0.2363 . 1.
O1 O2- 8 e 0.29 0.32 0.027 . 1.
O2 O2- 4 d 0. 0.5 0.146 . 1.
#End of TTdata_52732-ICSD