
#(C) 2022 by FIZ Karlsruhe - Leibniz Institute for Information Infrastructure.  All rights reserved.
data_30578-ICSD
_database_code_ICSD 30578
_audit_creation_date 1980-01-01
_audit_update_record 2004-04-01
_chemical_name_common 'Vanadium oxide (6/13)'
_chemical_formula_structural 'V6 O13'
_chemical_formula_sum 'O13 V6'
_chemical_name_structure_type V6O13
_exptl_crystal_density_diffrn 3.91
_citation_title
'Structural Investigation of the Metal-Insulator Transition in V6 O13'
loop_
_citation_id
_citation_journal_full
_citation_year
_citation_journal_volume
_citation_page_first
_citation_page_last
_citation_journal_id_ASTM
primary 'Materials Research Bulletin' 1974 9 955 964 MRBUAC
loop_
_citation_author_citation_id
_citation_author_name
primary 'Dernier, P.D.'
_cell_length_a 11.922
_cell_length_b 3.68
_cell_length_c 10.138
_cell_angle_alpha 90.
_cell_angle_beta 100.87
_cell_angle_gamma 90.
_cell_volume 436.8
_cell_formula_units_Z 2
_space_group_name_H-M_alt 'C 1 2/m 1'
_space_group_IT_number 12
loop_
_space_group_symop_id
_space_group_symop_operation_xyz
1 '-x, y, -z'
2 '-x, -y, -z'
3 'x, -y, z'
4 'x, y, z'
5 '-x+1/2, y+1/2, -z'
6 '-x+1/2, -y+1/2, -z'
7 'x+1/2, -y+1/2, z'
8 'x+1/2, y+1/2, z'
loop_
_atom_type_symbol
_atom_type_oxidation_number
V4+ 4
V5+ 5
V4+ 4
O2- -2
loop_
_atom_site_label
_atom_site_type_symbol
_atom_site_symmetry_multiplicity
_atom_site_Wyckoff_symbol
_atom_site_fract_x
_atom_site_fract_y
_atom_site_fract_z
_atom_site_B_iso_or_equiv
_atom_site_occupancy
V1 V4+ 4 i 0.1482 0. 0.00041 . 1.
V2 V5+ 4 i 0.08738 0. 0.6369 . 1.
V3 V4+ 4 i 0.21322 0. 0.36513 . 1.
O1 O2- 4 i 0.67883 0. 0.0052 . 1.
O2 O2- 4 i 0.38194 0. 0.38776 . 1.
O3 O2- 4 i 0.25102 0. 0.59227 . 1.
O4 O2- 2 a 0. 0. 0. . 1.
O5 O2- 4 i 0.11396 0. 0.80312 . 1.
O6 O2- 4 i 0.17817 0. 0.20062 . 1.
O7 O2- 4 i 0.06262 0. 0.40863 . 1.
#End of TTdata_30578-ICSD