
#(C) 2022 by FIZ Karlsruhe - Leibniz Institute for Information Infrastructure.  All rights reserved.
data_2376-ICSD
_database_code_ICSD 2376
_audit_creation_date 1980-01-01
_audit_update_record 2017-08-01
_chemical_name_common 'Dibismuth trioxide - gamma'
_chemical_formula_structural 'Bi2 O3'
_chemical_formula_sum 'Bi2 O3'
_chemical_name_structure_type Sillenite#Bi12SiO20
_exptl_crystal_density_diffrn 9.29
_diffrn_ambient_temperature 915.
_citation_title

;
On the structure of bismuthsesquioxide: the alpha, beta, gamma and delta-phase
;
loop_
_citation_id
_citation_journal_full
_citation_year
_citation_journal_volume
_citation_page_first
_citation_page_last
_citation_journal_id_ASTM
primary 'Zeitschrift fuer Anorganische und Allgemeine Chemie (1950) (DE)' 1978
444 151 166 ZAACAB
loop_
_citation_author_citation_id
_citation_author_name
primary 'Harwig, H.A.'
_cell_length_a 10.268
_cell_length_b 10.268
_cell_length_c 10.268
_cell_angle_alpha 90.
_cell_angle_beta 90.
_cell_angle_gamma 90.
_cell_volume 1082.57
_cell_formula_units_Z 13
_space_group_name_H-M_alt 'I 2 3'
_space_group_IT_number 197
loop_
_space_group_symop_id
_space_group_symop_operation_xyz
1 '-z, -x, y'
2 '-y, -z, x'
3 '-x, -y, z'
4 '-z, x, -y'
5 '-y, z, -x'
6 '-x, y, -z'
7 'z, -x, -y'
8 'y, -z, -x'
9 'x, -y, -z'
10 'z, x, y'
11 'y, z, x'
12 'x, y, z'
13 '-z+1/2, -x+1/2, y+1/2'
14 '-y+1/2, -z+1/2, x+1/2'
15 '-x+1/2, -y+1/2, z+1/2'
16 '-z+1/2, x+1/2, -y+1/2'
17 '-y+1/2, z+1/2, -x+1/2'
18 '-x+1/2, y+1/2, -z+1/2'
19 'z+1/2, -x+1/2, -y+1/2'
20 'y+1/2, -z+1/2, -x+1/2'
21 'x+1/2, -y+1/2, -z+1/2'
22 'z+1/2, x+1/2, y+1/2'
23 'y+1/2, z+1/2, x+1/2'
24 'x+1/2, y+1/2, z+1/2'
loop_
_atom_type_symbol
_atom_type_oxidation_number
Bi3+ 3
O2- -2
loop_
_atom_site_label
_atom_site_type_symbol
_atom_site_symmetry_multiplicity
_atom_site_Wyckoff_symbol
_atom_site_fract_x
_atom_site_fract_y
_atom_site_fract_z
_atom_site_B_iso_or_equiv
_atom_site_occupancy
Bi1 Bi3+ 24 f 0.187 0.358 0.472 . 1.
Bi2 Bi3+ 2 a 0. 0. 0. . 1.
O1 O2- 24 f 0.014 0.238 0.421 . 0.975
O2 O2- 8 c 0.216 0.216 0.216 . 0.975
O3 O2- 8 c 0.148 0.148 0.148 . 0.975
#End of TTdata_2376-ICSD