
#(C) 2022 by FIZ Karlsruhe - Leibniz Institute for Information Infrastructure.  All rights reserved.
data_2775-ICSD
_database_code_ICSD 2775
_audit_creation_date 1980-01-01
_audit_update_record 2017-08-01
_chemical_name_common 'Vanadium oxide (4/7)'
_chemical_formula_structural 'V4 O7'
_chemical_formula_sum 'O7 V4'
_chemical_name_structure_type V4O7
_exptl_crystal_density_diffrn 4.85
_citation_title 'The crystal structure of V4 O7'
loop_
_citation_id
_citation_journal_full
_citation_year
_citation_journal_volume
_citation_page_first
_citation_page_last
_citation_journal_id_ASTM
primary

;
Acta Crystallographica, Section B: Structural Crystallography and Crystal
Chemistry
; 1972 28 1404 1410 ACBCAR
loop_
_citation_author_citation_id
_citation_author_name
primary 'Horiuchi, Hiroyuki'
primary 'Tokonami, Masayasu'
primary 'Morimoto, Nobuo'
primary 'Nagasawa, Koichi'
_cell_length_a 5.504
_cell_length_b 6.667
_cell_length_c 7.007
_cell_angle_alpha 64.14
_cell_angle_beta 70.6
_cell_angle_gamma 74.686
_cell_volume 216.07
_cell_formula_units_Z 2
_space_group_name_H-M_alt 'P -1'
_space_group_IT_number 2
loop_
_space_group_symop_id
_space_group_symop_operation_xyz
1 '-x, -y, -z'
2 'x, y, z'
loop_
_atom_type_symbol
_atom_type_oxidation_number
V0+ 0
O0+ 0
loop_
_atom_site_label
_atom_site_type_symbol
_atom_site_symmetry_multiplicity
_atom_site_Wyckoff_symbol
_atom_site_fract_x
_atom_site_fract_y
_atom_site_fract_z
_atom_site_B_iso_or_equiv
_atom_site_occupancy
V1 V0+ 2 i 0.18258 0.09478 0.26746 0.45 1.
V2 V0+ 2 i 0.18393 0.10066 0.75902 0.34 1.
V3 V0+ 2 i 0.27767 0.63302 0.58794 0.43 1.
V4 V0+ 2 i 0.28491 0.62673 0.08351 0.37 1.
O1 O0+ 2 i 0.7969 0.0498 0.4332 1.04 1.
O2 O0+ 2 i 0.5308 0.1039 0.1323 0.98 1.
O3 O0+ 2 i 0.0264 0.1684 0.0213 0.78 1.
O4 O0+ 2 i 0.1701 0.7765 0.2973 0.71 1.
O5 O0+ 2 i 0.3568 0.3317 0.5888 1.01 1.
O6 O0+ 2 i 0.0874 0.3924 0.2567 1.05 1.
O7 O0+ 2 i 0.5996 0.4697 0.1577 0.67 1.
#End of TTdata_2775-ICSD