
#(C) 2022 by FIZ Karlsruhe - Leibniz Institute for Information Infrastructure.  All rights reserved.
data_1536-ICSD
_database_code_ICSD 1536
_audit_creation_date 1980-01-01
_audit_update_record 2012-02-01
_chemical_name_common 'Vanadium oxide (6/13) - LT'
_chemical_formula_structural 'V6 O13'
_chemical_formula_sum 'O13 V6'
_chemical_name_structure_type V6O13(mP38)
_exptl_crystal_density_diffrn 3.88
_diffrn_ambient_temperature 100.
_citation_title
'Structural re-investigation of the low-temperature phase of V6 O13'
loop_
_citation_id
_citation_journal_full
_citation_year
_citation_journal_volume
_citation_page_first
_citation_page_last
_citation_journal_id_ASTM
primary

;
Acta Crystallographica, Section B: Structural Crystallography and Crystal
Chemistry
; 1978 34 1037 1039 ACBCAR
loop_
_citation_author_citation_id
_citation_author_name
primary 'Kawada, I.'
primary 'Ishii, M.'
primary 'Saeki, M.'
primary 'Kimizuka, N.'
primary 'Nakano Onoda, M.'
primary 'Kato, K.'
_cell_length_a 10.07
_cell_length_b 3.713
_cell_length_c 11.96
_cell_angle_alpha 90.
_cell_angle_beta 100.9
_cell_angle_gamma 90.
_cell_volume 439.12
_cell_formula_units_Z 2
_space_group_name_H-M_alt 'P 1 21/c 1'
_space_group_IT_number 14
loop_
_space_group_symop_id
_space_group_symop_operation_xyz
1 'x, -y+1/2, z+1/2'
2 '-x, -y, -z'
3 '-x, y+1/2, -z+1/2'
4 'x, y, z'
loop_
_atom_type_symbol
_atom_type_oxidation_number
V4+ 4.33
O2- -2
loop_
_atom_site_label
_atom_site_type_symbol
_atom_site_symmetry_multiplicity
_atom_site_Wyckoff_symbol
_atom_site_fract_x
_atom_site_fract_y
_atom_site_fract_z
_atom_site_B_iso_or_equiv
_atom_site_occupancy
V1 V4+ 4 e 0.00144 0.03851 0.14799 . 1.
V2 V4+ 4 e 0.63597 0.00155 0.08797 . 1.
V3 V4+ 4 e 0.36664 0.00113 0.21537 . 1.
O1 O2- 4 e 0.0003 0.5076 0.1775 . 1.
O2 O2- 4 e 0.3885 0.0018 0.3818 . 1.
O3 O2- 4 e 0.5908 0.0012 0.249 . 1.
O4 O2- 2 a 0. 0. 0. . 1.
O5 O2- 4 e 0.1966 0.5032 0.3845 . 1.
O6 O2- 4 e 0.1994 0.0035 0.1799 . 1.
O7 O2- 4 e 0.4071 0.5004 0.5616 . 1.
loop_
_atom_site_aniso_label
_atom_site_aniso_type_symbol
_atom_site_aniso_beta_11
_atom_site_aniso_beta_22
_atom_site_aniso_beta_33
_atom_site_aniso_beta_12
_atom_site_aniso_beta_13
_atom_site_aniso_beta_23
V1 V4+ 0.00386 0.0171 0.00019 -0.00708 0.00013 -0.00015
V2 V4+ 0.00016 0.00209 0.00013 0.00004 -0.00004 -0.00001
V3 V4+ 0.00027 0.0017 0. -0.00004 -0.00009 -0.00001
O1 O2- 0.0011 0.0097 0.0008 -0.0005 0. -0.0021
O2 O2- 0.0011 0.0054 0.0011 -0.0002 0.0001 0.0002
O3 O2- 0.0011 0.0084 0.0005 -0.0003 0. 0.0004
O4 O2- 0.0015 0.0176 0.001 -0.0015 0.0001 -0.0019
O5 O2- 0.0011 0.0096 0.001 0.0008 0.0003 0.0007
O6 O2- 0.0009 0.0104 0.0012 0.0002 0. -0.0002
O7 O2- 0.0014 0.0082 0.0009 -0.0002 0.0001 0.0003
#End of TTdata_1536-ICSD