
#(C) 2022 by FIZ Karlsruhe - Leibniz Institute for Information Infrastructure.  All rights reserved.
data_10158-ICSD
_database_code_ICSD 10158
_audit_creation_date 1980-01-01
_audit_update_record 1988-01-22
_chemical_name_common 'Copper vanadium oxide (.9/2/5) - epsilon'
_chemical_formula_structural 'Cu0.85 V2 O5'
_chemical_formula_sum 'Cu0.85 O5 V2'
_exptl_crystal_density_diffrn 4.37
_citation_title

;
Bronzes oxygenes de vanadium de formule Cux V2 O5. Structure cristalline des
phases Cux V2 O5 -beta et Cux V2 O5 - epsilon
;
loop_
_citation_id
_citation_journal_full
_citation_year
_citation_journal_volume
_citation_page_first
_citation_page_last
_citation_journal_id_ASTM
primary 'Journal of Solid State Chemistry' 1970 2 531 543 JSSCBI
loop_
_citation_author_citation_id
_citation_author_name
primary 'Galy, J.'
primary 'Lavaud, D.'
primary 'Casalot, A.'
primary 'Hagenmuller, P.'
_cell_length_a 11.78
_cell_length_b 3.691
_cell_length_c 8.876
_cell_angle_alpha 90.
_cell_angle_beta 111.8
_cell_angle_gamma 90.
_cell_volume 358.33
_cell_formula_units_Z 4
_space_group_name_H-M_alt 'C 1 m 1'
_space_group_IT_number 8
loop_
_space_group_symop_id
_space_group_symop_operation_xyz
1 'x, -y, z'
2 'x, y, z'
3 'x+1/2, -y+1/2, z'
4 'x+1/2, y+1/2, z'
loop_
_atom_type_symbol
_atom_type_oxidation_number
Cu0+ 0
V0+ 0
O0+ 0
loop_
_atom_site_label
_atom_site_type_symbol
_atom_site_symmetry_multiplicity
_atom_site_Wyckoff_symbol
_atom_site_fract_x
_atom_site_fract_y
_atom_site_fract_z
_atom_site_B_iso_or_equiv
_atom_site_occupancy
Cu1 Cu0+ 2 a 0.7876 0. 0.6562 1.26 0.93
Cu2 Cu0+ 4 b 0.0323 0.289 0.6782 1.65 0.39
V1 V0+ 2 a 0. 0. 0. 0.71 1.
V2 V0+ 2 a 0.2998 0. 0.0009 0.84 1.
V3 V0+ 2 a 0.5627 0. 0.3289 0.77 1.
V4 V0+ 2 a 0.2642 0. 0.3387 0.67 1.
O1 O0+ 2 a 0.8467 0. 0.0476 1.63 1.
O2 O0+ 2 a 0.9657 0. 0.8076 1.04 1.
O3 O0+ 2 a 0.1777 0. 0.0666 1.78 1.
O4 O0+ 2 a 0.2377 0. 0.8096 1.61 1.
O5 O0+ 2 a 0.4807 0. 0.0606 1.19 1.
O6 O0+ 2 a 0.7247 0. 0.3226 0.67 1.
O7 O0+ 2 a 0.6077 0. 0.5296 1.15 1.
O8 O0+ 2 a 0.3947 0. 0.2826 0.81 1.
O9 O0+ 2 a 0.3267 0. 0.5326 1.51 1.
O10 O0+ 2 a 0.0677 0. 0.2736 0.71 1.
#End of TTdata_10158-ICSD