
#(C) 2022 by FIZ Karlsruhe - Leibniz Institute for Information Infrastructure.  All rights reserved.
data_9107-ICSD
_database_code_ICSD 9107
_audit_creation_date 1980-01-01
_audit_update_record 1988-01-22
_chemical_name_common 'Copper vanadium oxide (1.8/4/11)'
_chemical_formula_structural 'Cu1.82 V4 O11'
_chemical_formula_sum 'Cu1.82 O11 V4'
_exptl_crystal_density_diffrn 4.11
_citation_title 'Structure cristalline du Bronze de Vanadium Cu1.82 V4 O11'
loop_
_citation_id
_citation_journal_full
_citation_year
_citation_journal_volume
_citation_page_first
_citation_page_last
_citation_journal_id_ASTM
primary

;
Acta Crystallographica, Section B: Structural Crystallography and Crystal
Chemistry
; 1971 27 1005 1009 ACBCAR
loop_
_citation_author_citation_id
_citation_author_name
primary 'Galy, J.'
primary 'Lavaud, D.'
_cell_length_a 15.38
_cell_length_b 3.61
_cell_length_c 7.37
_cell_angle_alpha 90.
_cell_angle_beta 102.
_cell_angle_gamma 90.
_cell_volume 400.25
_cell_formula_units_Z 2
_space_group_name_H-M_alt 'C 1 m 1'
_space_group_IT_number 8
loop_
_space_group_symop_id
_space_group_symop_operation_xyz
1 'x, -y, z'
2 'x, y, z'
3 'x+1/2, -y+1/2, z'
4 'x+1/2, y+1/2, z'
loop_
_atom_type_symbol
_atom_type_oxidation_number
Cu0+ 0
V0+ 0
O0+ 0
loop_
_atom_site_label
_atom_site_type_symbol
_atom_site_symmetry_multiplicity
_atom_site_Wyckoff_symbol
_atom_site_fract_x
_atom_site_fract_y
_atom_site_fract_z
_atom_site_B_iso_or_equiv
_atom_site_occupancy
Cu1 Cu0+ 4 b 0.12 0.289 0.663 0.29 0.49
Cu2 Cu0+ 2 a 0.3629 0. 0.6995 1.92 0.84
V1 V0+ 2 a 0. 0. 0. 0.28 1.
V2 V0+ 2 a 0.7836 0. 0.0048 0.22 1.
V3 V0+ 2 a 0.438 0. 0.2928 0.34 1.
V4 V0+ 2 a 0.2174 0. 0.3014 0.18 1.
O1 O0+ 2 a 0.4843 0. 0.0427 0.42 1.
O2 O0+ 2 a 0.3123 0. 0.0837 0.5 1.
O3 O0+ 2 a 0.9283 0. 0.2187 0.35 1.
O4 O0+ 2 a 0.7383 0. 0.2417 0.39 1.
O5 O0+ 2 a 0.1153 0. 0.1777 0.39 1.
O6 O0+ 2 a 0.0283 0. 0.7967 0.51 1.
O7 O0+ 2 a 0.8633 0. 0.8347 0.48 1.
O8 O0+ 2 a 0.6913 0. 0.8567 0.43 1.
O9 O0+ 2 a 0.5313 0. 0.4407 0.45 1.
O10 O0+ 2 a 0.3603 0. 0.4417 0.48 1.
O11 O0+ 2 a 0.1983 0. 0.5177 0.46 1.
#End of TTdata_9107-ICSD