
#(C) 2022 by FIZ Karlsruhe - Leibniz Institute for Information Infrastructure.  All rights reserved.
data_81090-ICSD
_database_code_ICSD 81090
_audit_creation_date 1997-05-13
_chemical_name_common 'Hexabismuth divanadium(IV) vanadium oxide'
_chemical_formula_structural 'Bi6 V3 O16'
_chemical_formula_sum 'Bi6 O16 V3'
_exptl_crystal_density_diffrn 7.84
_citation_title

;
Crystal structure of low temperature form of Bi6 V3 O16 determined by Rietveld
refinement of synchrotron radiation powder diffraction data: a new mixed
valence Aurivillius phase
;
loop_
_citation_id
_citation_journal_full
_citation_year
_citation_journal_volume
_citation_page_first
_citation_page_last
_citation_journal_id_ASTM
primary

;
Nuclear Instruments and Methods in Physics Research, Section B: Beam
Interactions with Materials and Atoms
; 1995 97 119 122 NIMBEU
loop_
_citation_author_citation_id
_citation_author_name
primary 'Joubert, O.'
primary 'Jouanneaux, A.'
primary 'Ganne, M.'
_cell_length_a 5.4721
_cell_length_b 17.2542
_cell_length_c 14.9174
_cell_angle_alpha 90.
_cell_angle_beta 90.
_cell_angle_gamma 90.
_cell_volume 1408.45
_cell_formula_units_Z 4
_space_group_name_H-M_alt 'P n m a'
_space_group_IT_number 62
loop_
_space_group_symop_id
_space_group_symop_operation_xyz
1 'x+1/2, y, -z+1/2'
2 'x, -y+1/2, z'
3 '-x+1/2, y+1/2, z+1/2'
4 '-x, -y, -z'
5 '-x+1/2, -y, z+1/2'
6 '-x, y+1/2, -z'
7 'x+1/2, -y+1/2, -z+1/2'
8 'x, y, z'
loop_
_atom_type_symbol
_atom_type_oxidation_number
Bi3+ 3
V4+ 4
V5+ 5
O2- -2
loop_
_atom_site_label
_atom_site_type_symbol
_atom_site_symmetry_multiplicity
_atom_site_Wyckoff_symbol
_atom_site_fract_x
_atom_site_fract_y
_atom_site_fract_z
_atom_site_B_iso_or_equiv
_atom_site_occupancy
Bi1 Bi3+ 4 c 0.2014 0.25 0.1828 1.11 1.
Bi2 Bi3+ 4 c 0.2548 0.25 0.8291 1.05 1.
Bi3 Bi3+ 8 d 0.2642 0.5885 0.1659 1.1 1.
Bi4 Bi3+ 8 d 0.2845 0.0731 0.3327 1.48 1.
V1 V4+ 4 c 0.2467 0.25 0.4725 1.4 1.
V2 V5+ 8 d 0.2615 0.1119 0.0147 1.4 1.
O1 O2- 8 d 0.469 0.525 0.251 0.1 1.
O2 O2- 8 d 0.096 0.133 0.229 0.1 1.
O3 O2- 8 d 0.023 0.172 0.744 0.1 1.
O4 O2- 8 d 0.497 0.171 0.051 0.1 1.
O5 O2- 8 d 0.008 0.169 0.032 0.1 1.
O6 O2- 8 d 0.24 0.595 0.407 0.1 1.
O7 O2- 8 d 0.204 0.031 0.073 0.1 1.
O8 O2- 4 c 0.301 0.25 0.351 0.1 1.
O9 O2- 4 c 0.148 0.25 0.583 0.1 1.
#End of TTdata_81090-ICSD