
#(C) 2022 by FIZ Karlsruhe - Leibniz Institute for Information Infrastructure.  All rights reserved.
data_50748-ICSD
_database_code_ICSD 50748
_audit_creation_date 2000-07-15
_chemical_name_common 'Bismuth vanadium oxide (4/2/10.5)'
_chemical_formula_structural 'Bi4 V2 O10.5'
_chemical_formula_sum 'Bi4 O10.5 V2'
_exptl_crystal_density_diffrn 7.77
_citation_title

;
Structural study of modified Bi4 V2 O(10+delta) phases (delta = 0, 0.5, 1):
influence of antimony contribution
;
loop_
_citation_id
_citation_journal_full
_citation_year
_citation_journal_volume
_citation_page_first
_citation_page_last
_citation_journal_id_ASTM
primary 'Journal of Solid State Chemistry' 1999 144 379 387 JSSCBI
loop_
_citation_author_citation_id
_citation_author_name
primary 'Sorokina, S.'
primary 'Enjalbert, R.'
primary 'Baules, P.'
primary 'Castro, A.'
primary 'Galy, J.'
_cell_length_a 15.351
_cell_length_b 5.574
_cell_length_c 5.527
_cell_angle_alpha 90.
_cell_angle_beta 90.
_cell_angle_gamma 90.
_cell_volume 472.93
_cell_formula_units_Z 2
_space_group_name_H-M_alt 'C m c m'
_space_group_IT_number 63
loop_
_space_group_symop_id
_space_group_symop_operation_xyz
1 '-x, y, -z+1/2'
2 '-x, -y, z+1/2'
3 '-x, y, z'
4 '-x, -y, -z'
5 'x, -y, z+1/2'
6 'x, y, -z+1/2'
7 'x, -y, -z'
8 'x, y, z'
9 '-x+1/2, y+1/2, -z+1/2'
10 '-x+1/2, -y+1/2, z+1/2'
11 '-x+1/2, y+1/2, z'
12 '-x+1/2, -y+1/2, -z'
13 'x+1/2, -y+1/2, z+1/2'
14 'x+1/2, y+1/2, -z+1/2'
15 'x+1/2, -y+1/2, -z'
16 'x+1/2, y+1/2, z'
loop_
_atom_type_symbol
_atom_type_oxidation_number
Bi3+ 3
V4+ 4.5
O2- -2
loop_
_atom_site_label
_atom_site_type_symbol
_atom_site_symmetry_multiplicity
_atom_site_Wyckoff_symbol
_atom_site_fract_x
_atom_site_fract_y
_atom_site_fract_z
_atom_site_B_iso_or_equiv
_atom_site_occupancy
Bi1 Bi3+ 8 g 0.3311 0.2319 0.25 1.7 1.
V1 V4+ 8 f 0. 0.179 0.215 1.1 0.3
V2 V4+ 8 f 0. 0.316 0.209 1. 0.2
O1 O2- 16 h 0.246 0.01 0.024 0.6 0.5
O2 O2- 16 h 0.01 0.05 0.55 5. 0.2
O3 O2- 16 h 0.47 0.13 0.06 6. 0.2
O4 O2- 8 f 0. 0.16 0.63 2. 0.2
O5 O2- 8 g 0.098 0.32 0.25 2. 0.625
#End of TTdata_50748-ICSD