
#(C) 2022 by FIZ Karlsruhe - Leibniz Institute for Information Infrastructure.  All rights reserved.
data_77609-ICSD
_database_code_ICSD 77609
_audit_creation_date 2003-04-01
_chemical_name_common 'Copper vanadium oxide (0.59/2/5) - beta''
_chemical_formula_structural 'Cu0.59 V2 O5'
_chemical_formula_sum 'Cu0.59 O5 V2'
_chemical_name_structure_type NaxV2O5
_exptl_crystal_density_diffrn 4.08
_citation_title

;
Vanadium oxide bronzes - the double mixed valence phases Cu(+)xt Cz(2+)x(1-t)
V(5+)2-x(2-t) V(4+)x(2-t) O5. A joint XRD and ESCA investigation
;
loop_
_citation_id
_citation_journal_full
_citation_year
_citation_journal_volume
_citation_page_first
_citation_page_last
_citation_journal_id_ASTM
primary 'Zeitschrift fuer Kristallographie' 1994 209 405 412 ZEKRDZ
loop_
_citation_author_citation_id
_citation_author_name
primary 'Savariault, J.M.'
primary 'Deramond, E.'
primary 'Galy, J.'
_cell_length_a 15.2007
_cell_length_b 3.6375
_cell_length_c 10.0925
_cell_angle_alpha 90.
_cell_angle_beta 106.13
_cell_angle_gamma 90.
_cell_volume 536.07
_cell_formula_units_Z 6
_space_group_name_H-M_alt 'C 1 2/m 1'
_space_group_IT_number 12
loop_
_space_group_symop_id
_space_group_symop_operation_xyz
1 '-x, y, -z'
2 '-x, -y, -z'
3 'x, -y, z'
4 'x, y, z'
5 '-x+1/2, y+1/2, -z'
6 '-x+1/2, -y+1/2, -z'
7 'x+1/2, -y+1/2, z'
8 'x+1/2, y+1/2, z'
loop_
_atom_type_symbol
_atom_type_oxidation_number
Cu2+ 2
V4+ 4.41
O2- -2
loop_
_atom_site_label
_atom_site_type_symbol
_atom_site_symmetry_multiplicity
_atom_site_Wyckoff_symbol
_atom_site_fract_x
_atom_site_fract_y
_atom_site_fract_z
_atom_site_B_iso_or_equiv
_atom_site_occupancy
Cu1 Cu2+ 4 i 0.5427 0. 0.3437 1.64 0.34
Cu2 Cu2+ 8 j 0.0276 0.4273 0.3581 2.72 0.27
V1 V4+ 4 i 0.33233 0. 0.09133 0.44 1.
V2 V4+ 4 i 0.11361 0. 0.1194 0.75 1.
V3 V4+ 4 i 0.28682 0. 0.40661 0.65 1.
O1 O2- 2 a 0. 0. 0. 1.11 1.
O2 O2- 4 i 0.8115 0. 0.0447 0.62 1.
O3 O2- 4 i 0.6322 0. 0.0847 0.64 1.
O4 O2- 4 i 0.4317 0. 0.2031 1.03 1.
O5 O2- 4 i 0.2605 0. 0.2227 0.75 1.
O6 O2- 4 i 0.0971 0. 0.2741 1.38 1.
O7 O2- 4 i 0.2448 0. 0.5758 0.92 1.
O8 O2- 4 i 0.3987 0. 0.4607 1.32 1.
#End of TTdata_77609-ICSD