
#(C) 2022 by FIZ Karlsruhe - Leibniz Institute for Information Infrastructure.  All rights reserved.
data_52733-ICSD
_database_code_ICSD 52733
_audit_creation_date 2003-04-01
_audit_update_record 2009-02-01
_chemical_name_common 'Bismuth oxide (6/7)'
_chemical_formula_structural 'Bi6 O7'
_chemical_formula_sum 'Bi6 O7'
_chemical_name_structure_type Bi6O7
_exptl_crystal_density_diffrn 8.72
_citation_title 'Crystal structure of a new tetragonal phase in the Bi-O system'
loop_
_citation_id
_citation_journal_full
_citation_year
_citation_journal_volume
_citation_page_first
_citation_page_last
_citation_journal_id_ASTM
primary Kristallografiya 1968 13 49 52 KRISAJ
loop_
_citation_author_citation_id
_citation_author_name
primary 'Zav'yalova, A.A. (Zavyalova, A.A.)'
primary 'Imamov, R.M.'
_cell_length_a 3.85
_cell_length_b 3.85
_cell_length_c 35.1
_cell_angle_alpha 90.
_cell_angle_beta 90.
_cell_angle_gamma 90.
_cell_volume 520.27
_cell_formula_units_Z 2
_space_group_name_H-M_alt 'I 4/m m m'
_space_group_IT_number 139
loop_
_space_group_symop_id
_space_group_symop_operation_xyz
1 'y, x, -z'
2 '-y, -x, -z'
3 '-y, x, -z'
4 'y, -x, -z'
5 '-x, y, -z'
6 'x, -y, -z'
7 'x, y, -z'
8 '-x, -y, -z'
9 '-y, -x, z'
10 'y, x, z'
11 'y, -x, z'
12 '-y, x, z'
13 'x, -y, z'
14 '-x, y, z'
15 '-x, -y, z'
16 'x, y, z'
17 'y+1/2, x+1/2, -z+1/2'
18 '-y+1/2, -x+1/2, -z+1/2'
19 '-y+1/2, x+1/2, -z+1/2'
20 'y+1/2, -x+1/2, -z+1/2'
21 '-x+1/2, y+1/2, -z+1/2'
22 'x+1/2, -y+1/2, -z+1/2'
23 'x+1/2, y+1/2, -z+1/2'
24 '-x+1/2, -y+1/2, -z+1/2'
25 '-y+1/2, -x+1/2, z+1/2'
26 'y+1/2, x+1/2, z+1/2'
27 'y+1/2, -x+1/2, z+1/2'
28 '-y+1/2, x+1/2, z+1/2'
29 'x+1/2, -y+1/2, z+1/2'
30 '-x+1/2, y+1/2, z+1/2'
31 '-x+1/2, -y+1/2, z+1/2'
32 'x+1/2, y+1/2, z+1/2'
loop_
_atom_type_symbol
_atom_type_oxidation_number
Bi2+ 2.33
O2- -2
loop_
_atom_site_label
_atom_site_type_symbol
_atom_site_symmetry_multiplicity
_atom_site_Wyckoff_symbol
_atom_site_fract_x
_atom_site_fract_y
_atom_site_fract_z
_atom_site_B_iso_or_equiv
_atom_site_occupancy
Bi1 Bi2+ 2 a 0. 0. 0. . 1.
Bi2 Bi2+ 4 e 0. 0. 0.153 . 0.75
Bi3 Bi2+ 4 e 0. 0. 0.333 . 0.75
Bi4 Bi2+ 4 e 0. 0. 0.422 . 1.
O1 O2- 8 g 0. 0.5 0.04 . 0.56
O2 O2- 8 g 0. 0.5 0.12 . 0.63
O3 O2- 8 g 0. 0.5 0.21 . 0.56
#End of TTdata_52733-ICSD