
#(C) 2022 by FIZ Karlsruhe - Leibniz Institute for Information Infrastructure.  All rights reserved.
data_281620-ICSD
_database_code_ICSD 281620
_audit_creation_date 2004-10-01
_chemical_name_common 'Vanadium oxide (6/13)'
_chemical_formula_structural 'V6 O13'
_chemical_formula_sum 'O13 V6'
_chemical_name_structure_type V6O13(mP38)
_exptl_crystal_density_diffrn 3.9
_diffrn_ambient_temperature 95.
_citation_title 'Low-temperature structure of V6 O13'
loop_
_citation_id
_citation_journal_full
_citation_year
_citation_journal_volume
_citation_page_first
_citation_page_last
_citation_journal_id_ASTM
primary 'Acta Crystallographica, Section B: Structural Science' 2003 59 747 752
ASBSDK
loop_
_citation_author_citation_id
_citation_author_name
primary 'Hoewing, J.'
primary 'Gustafsson, T.'
primary 'Thomas, J.O.'
_cell_length_a 10.0543
_cell_length_b 3.708
_cell_length_c 11.9554
_cell_angle_alpha 90.
_cell_angle_beta 100.914
_cell_angle_gamma 90.
_cell_volume 437.65
_cell_formula_units_Z 2
_space_group_name_H-M_alt 'P 1 c 1'
_space_group_IT_number 7
loop_
_space_group_symop_id
_space_group_symop_operation_xyz
1 'x, -y, z+1/2'
2 'x, y, z'
loop_
_atom_type_symbol
_atom_type_oxidation_number
V4+ 4
V5+ 5
V4+ 4
O2- -2
loop_
_atom_site_label
_atom_site_type_symbol
_atom_site_symmetry_multiplicity
_atom_site_Wyckoff_symbol
_atom_site_fract_x
_atom_site_fract_y
_atom_site_fract_z
_atom_site_U_iso_or_equiv
_atom_site_occupancy
V1 V4+ 2 a 0.00311 0.2026 0.29599 0.00876 1.
V2 V4+ 2 a 0. 0.2642 0. 0.00432 1.
V3 V5+ 2 a 0.6368 0.2497 0.22452 0.00272 1.
V4 V5+ 2 a 0.3648 0.2522 0.05064 0.00235 1.
V5 V4+ 2 a 0.6333 0.7489 0.42231 0.00247 1.
V6 V4+ 2 a 0.3664 0.2485 0.35295 0.00264 1.
O1 O2- 2 a 0.0004 0.244 0.45813 0.005 1.
O2 O2- 2 a 0.6116 0.7497 0.25573 0.0038 1.
O3 O2- 2 a 0.5902 0.248 0.38763 0.004 1.
O4 O2- 2 a 0.0002 0.26 0.13973 0.0056 1.
O5 O2- 2 a 0.8047 0.248 0.25513 0.0051 1.
O6 O2- 2 a 0.8005 0.7464 0.45983 0.0046 1.
O7 O2- 2 a 0.5933 0.249 0.07693 0.004 1.
O8 O2- 2 a 0.0011 0.7411 0.31273 0.0051 1.
O9 O2- 2 a 0.3876 0.249 0.51973 0.0046 1.
O10 O2- 2 a 0.4092 0.7489 0.38963 0.0038 1.
O11 O2- 2 a 0.1979 0.2531 0.02433 0.0049 1.
O12 O2- 2 a 0.1983 0.246 0.31933 0.0052 1.
O13 O2- 2 a 0.4084 0.249 0.20003 0.0049 1.
loop_
_atom_site_aniso_label
_atom_site_aniso_type_symbol
_atom_site_aniso_U_11
_atom_site_aniso_U_22
_atom_site_aniso_U_33
_atom_site_aniso_U_12
_atom_site_aniso_U_13
_atom_site_aniso_U_23
V1 V4+ 0.0035 0.0149 0.0075 0.00162 0.00013 -0.0057
V2 V4+ 0.00295 0.00396 0.0059 -0.00099 0.00033 -0.00054
V3 V5+ 0.0024 0.00294 0.00284 -0.00007 0.00053 0.0003
V4 V5+ 0.00234 0.003 0.00182 -0.00013 0.00065 0.00035
V5 V4+ 0.00203 0.00222 0.00318 -0.00021 0.0005 0.00001
V6 V4+ 0.00253 0.00262 0.00257 0.00001 0. -0.00026
O1 O2- 0.004 0.004 0.0068 -0.0015 0.0002 -0.0038
O2 O2- 0.004 0.0035 0.0038 -0.0005 0.0002 -0.0004
O3 O2- 0.0038 0.0032 0.0048 -0.0008 0.0003 0.
O4 O2- 0.0046 0.0087 0.0035 -0.0019 0.0005 -0.0009
O5 O2- 0.0025 0.0066 0.0066 0.0011 0.0019 -0.0006
O6 O2- 0.0035 0.0049 0.0056 -0.0001 0.0017 0.0005
O7 O2- 0.0031 0.0042 0.0051 -0.0001 0.0018 -0.0007
O8 O2- 0.0055 0.0055 0.0042 0.0008 0.0007 0.0007
O9 O2- 0.0067 0.0032 0.0041 0.0015 0.0019 -0.0006
O10 O2- 0.0045 0.0036 0.0034 0.0003 0.0008 0.0002
O11 O2- 0.0037 0.0039 0.0064 -0.0009 -0.0007 0.0002
O12 O2- 0.0022 0.0057 0.0072 -0.0003 -0.0002 -0.0009
O13 O2- 0.0066 0.0037 0.0047 -0.0006 0.0013 0.0005
#End of TTdata_281620-ICSD