
#(C) 2022 by FIZ Karlsruhe - Leibniz Institute for Information Infrastructure.  All rights reserved.
data_79500-ICSD
_database_code_ICSD 79500
_audit_creation_date 1996-10-14
_chemical_name_common 'Dibismuth tetraoxide'
_chemical_formula_structural 'Bi2 O4'
_chemical_formula_sum 'Bi2 O4'
_chemical_name_structure_type HgMoO4
_exptl_crystal_density_diffrn 9.54
_diffrn_ambient_temperature 296.
_citation_title 'Crystal structure of Bi2 O4 with beta-Sb2 O4 -type structure'
loop_
_citation_id
_citation_journal_full
_citation_year
_citation_journal_volume
_citation_page_first
_citation_page_last
_citation_journal_id_ASTM
primary 'Journal of Solid State Chemistry' 1995 116 281 285 JSSCBI
loop_
_citation_author_citation_id
_citation_author_name
primary 'Kumada, N.'
primary 'Kinomura, N.'
primary 'Woodward, P.M.'
primary 'Sleight, A.W.'
_cell_length_a 12.3668
_cell_length_b 5.118
_cell_length_c 5.567
_cell_angle_alpha 90.
_cell_angle_beta 107.838
_cell_angle_gamma 90.
_cell_volume 335.41
_cell_formula_units_Z 4
_space_group_name_H-M_alt 'C 1 2/c 1'
_space_group_IT_number 15
loop_
_space_group_symop_id
_space_group_symop_operation_xyz
1 'x, -y, z+1/2'
2 '-x, -y, -z'
3 '-x, y, -z+1/2'
4 'x, y, z'
5 'x+1/2, -y+1/2, z+1/2'
6 '-x+1/2, -y+1/2, -z'
7 '-x+1/2, y+1/2, -z+1/2'
8 'x+1/2, y+1/2, z'
loop_
_atom_type_symbol
_atom_type_oxidation_number
Bi5+ 5
Bi3+ 3
O2- -2
loop_
_atom_site_label
_atom_site_type_symbol
_atom_site_symmetry_multiplicity
_atom_site_Wyckoff_symbol
_atom_site_fract_x
_atom_site_fract_y
_atom_site_fract_z
_atom_site_B_iso_or_equiv
_atom_site_occupancy
Bi1 Bi5+ 4 c 0.25 0.25 0. 0.6 1.
Bi2 Bi3+ 4 e 0. 0.232 0.25 1.2 1.
O1 O2- 8 f 0.3213 0.063 0.348 1.5 1.
O2 O2- 8 f 0.4067 0.416 0.027 1.3 1.
#End of TTdata_79500-ICSD