
#(C) 2022 by FIZ Karlsruhe - Leibniz Institute for Information Infrastructure.  All rights reserved.
data_259711-ICSD
_database_code_ICSD 259711
_audit_creation_date 2019-02-01
_chemical_name_common 'Copper(II) oxide'
_chemical_formula_structural 'Cu O'
_chemical_formula_sum 'Cu1 O1'
_chemical_name_structure_type CuO(mS8)
_exptl_crystal_density_diffrn 6.44
_citation_title

;
Volatile organic compound sensing using copper oxide thin films: Addressing
the cross sensitivity issue
;
_publ_section_comment 'Cell and Type only determined'
loop_
_citation_id
_citation_journal_full
_citation_year
_citation_journal_volume
_citation_page_first
_citation_page_last
_citation_journal_id_ASTM
primary 'Journal of Alloys and Compounds' 2017 692 108 118 JALCEU
loop_
_citation_author_citation_id
_citation_author_name
primary 'Ghosh, A.'
primary 'Maity, A.'
primary 'Banerjee, R.'
primary 'Majumder, S.B.'
_cell_length_a 4.707
_cell_length_b 3.433
_cell_length_c 5.148
_cell_angle_alpha 90.
_cell_angle_beta 99.537
_cell_angle_gamma 90.
_cell_volume 82.04
_cell_formula_units_Z 4
_space_group_name_H-M_alt 'C 1 2/c 1'
_space_group_IT_number 15
loop_
_space_group_symop_id
_space_group_symop_operation_xyz
1 'x, -y, z+1/2'
2 '-x, -y, -z'
3 '-x, y, -z+1/2'
4 'x, y, z'
5 'x+1/2, -y+1/2, z+1/2'
6 '-x+1/2, -y+1/2, -z'
7 '-x+1/2, y+1/2, -z+1/2'
8 'x+1/2, y+1/2, z'
loop_
_atom_type_symbol
_atom_type_oxidation_number
Cu0+ 0
O0+ 0
loop_
_atom_site_label
_atom_site_type_symbol
_atom_site_symmetry_multiplicity
_atom_site_Wyckoff_symbol
_atom_site_fract_x
_atom_site_fract_y
_atom_site_fract_z
_atom_site_B_iso_or_equiv
_atom_site_occupancy
Cu1 Cu0+ 4 c 0.25 0.25 0. . 1.
O1 O0+ 4 e 0. 0.098 0.25 . 1.
#End of TTdata_259711-ICSD