
#(C) 2022 by FIZ Karlsruhe - Leibniz Institute for Information Infrastructure.  All rights reserved.
data_171028-ICSD
_database_code_ICSD 171028
_audit_creation_date 2006-04-01
_chemical_name_common 'Copper divanadate - gamma'
_chemical_formula_structural 'Cu2 V2 O7'
_chemical_formula_sum 'Cu2 O7 V2'
_exptl_crystal_density_diffrn 4.21
_citation_title

;
The crystal structure of gamma-Cu2 V2 O7 and its comparison to blossite
(alpha-Cu2 V2 O7) and ziesite (beta-Cu2 V2 O7)
;
loop_
_citation_id
_citation_journal_full
_citation_year
_citation_journal_volume
_citation_page_first
_citation_page_last
_citation_journal_id_ASTM
primary 'Canadian Mineralogist' 2005 43 671 677 CAMIA6
loop_
_citation_author_citation_id
_citation_author_name
primary 'Krivovichev, S.V.'
primary 'Filatov, S.K.'
primary 'Cherepansky, P.N.'
primary 'Armbruster, T.'
primary 'Pankratova, O.Y.'
_cell_length_a 5.0873
_cell_length_b 5.8233
_cell_length_c 9.402
_cell_angle_alpha 99.78
_cell_angle_beta 97.253
_cell_angle_gamma 97.202
_cell_volume 269.2
_cell_formula_units_Z 2
_space_group_name_H-M_alt 'P -1'
_space_group_IT_number 2
loop_
_space_group_symop_id
_space_group_symop_operation_xyz
1 '-x, -y, -z'
2 'x, y, z'
loop_
_atom_type_symbol
_atom_type_oxidation_number
Cu2+ 2
V5+ 5
O2- -2
loop_
_atom_site_label
_atom_site_type_symbol
_atom_site_symmetry_multiplicity
_atom_site_Wyckoff_symbol
_atom_site_fract_x
_atom_site_fract_y
_atom_site_fract_z
_atom_site_U_iso_or_equiv
_atom_site_occupancy
Cu1 Cu2+ 2 i 0.76344 0.15492 0.01698 0.0128 1.
Cu2 Cu2+ 2 i 0.7809 0.14584 0.50655 0.0126 1.
V1 V5+ 2 i 0.33627 0.32508 0.28123 0.0095 1.
V2 V5+ 2 i 0.21484 0.26957 0.80272 0.0091 1.
O1 O2- 2 i 0.4115 0.1078 0.8977 0.0118 1.
O2 O2- 2 i 0.0855 0.1774 0.1502 0.0141 1.
O3 O2- 2 i 0.4514 0.1293 0.3805 0.0133 1.
O4 O2- 2 i 0.1154 0.1248 0.6226 0.0123 1.
O5 O2- 2 i 0.6051 0.445 0.1891 0.0145 1.
O6 O2- 2 i 0.0498 0.6864 0.1176 0.0123 1.
O7 O2- 2 i 0.2363 0.5429 0.3904 0.0195 1.
loop_
_atom_site_aniso_label
_atom_site_aniso_type_symbol
_atom_site_aniso_U_11
_atom_site_aniso_U_22
_atom_site_aniso_U_33
_atom_site_aniso_U_12
_atom_site_aniso_U_13
_atom_site_aniso_U_23
Cu1 Cu2+ 0.0094 0.0164 0.0128 -0.00025 -0.0005 0.00625
Cu2 Cu2+ 0.0121 0.0123 0.0122 0.00474 -0.0014 -0.00089
V1 V5+ 0.0095 0.0095 0.0092 0.0015 0.0006 0.0013
V2 V5+ 0.0094 0.009 0.0085 0.001 0.0006 0.0014
O1 O2- 0.01 0.012 0.014 0.0018 0.0003 0.0054
O2 O2- 0.012 0.014 0.015 0.0008 -0.0028 0.0028
O3 O2- 0.012 0.014 0.014 0.0029 -0.0007 0.0044
O4 O2- 0.012 0.013 0.011 0.0048 -0.0016 -0.0008
O5 O2- 0.015 0.013 0.015 0.0002 0.0035 0.0033
O6 O2- 0.012 0.012 0.014 0.0021 0.0021 0.0043
O7 O2- 0.022 0.018 0.018 0.0093 0.0008 -0.0019
#End of TTdata_171028-ICSD