
#(C) 2022 by FIZ Karlsruhe - Leibniz Institute for Information Infrastructure.  All rights reserved.
data_85181-ICSD
_database_code_ICSD 85181
_audit_creation_date 1999-06-02
_audit_update_record 2016-02-01
_chemical_name_common 'Bismuth vanadium oxide (2/1/5.5) - alpha'
_chemical_formula_structural 'Bi2 V O5.5'
_chemical_formula_sum 'Bi2 O5.5 V1'
_exptl_crystal_density_diffrn 7.83
_diffrn_ambient_temperature 298.
_citation_title 'Crystal structure of ferroelectric Bi2 V O5.5'
loop_
_citation_id
_citation_journal_full
_citation_year
_citation_journal_volume
_citation_page_first
_citation_page_last
_citation_journal_id_ASTM
primary 'Materials Research Bulletin' 1997 32 1651 1656 MRBUAC
loop_
_citation_author_citation_id
_citation_author_name
primary 'Sooryanarayana, K.'
primary 'Guru Row, T.N.'
primary 'Varma, K.B.R.'
_cell_length_a 5.602
_cell_length_b 15.269
_cell_length_c 5.525
_cell_angle_alpha 90.
_cell_angle_beta 90.
_cell_angle_gamma 90.
_cell_volume 472.59
_cell_formula_units_Z 4
_space_group_name_H-M_alt 'A b a 2'
_space_group_IT_number 41
loop_
_space_group_symop_id
_space_group_symop_operation_xyz
1 'x+1/2, -y+1/2, z'
2 '-x+1/2, y+1/2, z'
3 '-x, -y, z'
4 'x, y, z'
5 'x+1/2, -y, z+1/2'
6 '-x+1/2, y, z+1/2'
7 '-x, -y+1/2, z+1/2'
8 'x, y+1/2, z+1/2'
loop_
_atom_type_symbol
_atom_type_oxidation_number
Bi3+ 3
V5+ 5
O2- -2
loop_
_atom_site_label
_atom_site_type_symbol
_atom_site_symmetry_multiplicity
_atom_site_Wyckoff_symbol
_atom_site_fract_x
_atom_site_fract_y
_atom_site_fract_z
_atom_site_U_iso_or_equiv
_atom_site_occupancy
Bi1 Bi3+ 8 b 0.0009 0.33065 0.0001 . 1.
V1 V5+ 8 b 0.4392 0.002 0.4718 0.011 0.5
O1 O2- 8 b 0.2459 0.2511 0.2701 0.034 1.
O2 O2- 8 b 0.0734 0.0941 0.021 0.037 0.5
O3 O2- 8 b 0.0844 0.4042 0.4823 0.036 0.5
O4 O2- 8 b 0.1488 0.485 0.2134 0.04 0.375
O5 O2- 8 b 0.3631 0.4873 0.3345 0.042 0.375
loop_
_atom_site_aniso_label
_atom_site_aniso_type_symbol
_atom_site_aniso_U_11
_atom_site_aniso_U_22
_atom_site_aniso_U_33
_atom_site_aniso_U_12
_atom_site_aniso_U_13
_atom_site_aniso_U_23
Bi1 Bi3+ 0.043 0.0162 0.0093 -0.002 0.002 -0.0029
#End of TTdata_85181-ICSD