
#(C) 2022 by FIZ Karlsruhe - Leibniz Institute for Information Infrastructure.  All rights reserved.
data_88995-ICSD
_database_code_ICSD 88995
_audit_creation_date 2001-07-16
_chemical_name_common 'Tetrabismuth divanadium(IV) oxide - alpha'
_chemical_formula_structural 'Bi4 V2 O10'
_chemical_formula_sum 'Bi4 O10 V2'
_exptl_crystal_density_diffrn 7.77
_citation_title

;
alpha-Bi4 V2 O10 crystal structure and oxidation mechanism. X-ray and electron
diffraction analysis
;
loop_
_citation_id
_citation_journal_full
_citation_year
_citation_journal_volume
_citation_page_first
_citation_page_last
_citation_journal_id_ASTM
primary 'Materials Research Bulletin' 1999 34 655 664 MRBUAC
loop_
_citation_author_citation_id
_citation_author_name
primary 'Satto, C.'
primary 'Millet, P.'
primary 'Sciau, P.'
primary 'Roucau, C.'
primary 'Galy, J.'
_cell_length_a 5.4704
_cell_length_b 17.2471
_cell_length_c 14.921
_cell_angle_alpha 90.
_cell_angle_beta 90.
_cell_angle_gamma 90.
_cell_volume 1407.77
_cell_formula_units_Z 6
_space_group_name_H-M_alt 'P n m a'
_space_group_IT_number 62
loop_
_space_group_symop_id
_space_group_symop_operation_xyz
1 'x+1/2, y, -z+1/2'
2 'x, -y+1/2, z'
3 '-x+1/2, y+1/2, z+1/2'
4 '-x, -y, -z'
5 '-x+1/2, -y, z+1/2'
6 '-x, y+1/2, -z'
7 'x+1/2, -y+1/2, -z+1/2'
8 'x, y, z'
loop_
_atom_type_symbol
_atom_type_oxidation_number
Bi3+ 3
V4+ 4
O2- -2
loop_
_atom_site_label
_atom_site_type_symbol
_atom_site_symmetry_multiplicity
_atom_site_Wyckoff_symbol
_atom_site_fract_x
_atom_site_fract_y
_atom_site_fract_z
_atom_site_B_iso_or_equiv
_atom_site_occupancy
Bi1 Bi3+ 4 c 0.295 0.25 0.8186 0.9 1.
Bi2 Bi3+ 4 c 0.248 0.25 0.1708 0.8 1.
Bi3 Bi3+ 8 d 0.262 0.0884 0.3344 0.7 1.
Bi4 Bi3+ 8 d 0.2858 0.5725 0.1685 0.8 1.
V1 V4+ 4 c 0.261 0.25 0.524 0.07 1.
V2 V4+ 8 d 0.256 0.6129 0.4859 0.07 1.
O1 O2- 4 c 0.294 0.25 0.401 1.1 1.
O2 O2- 8 d 0.24 0.114 0.093 1.1 1.
O3 O2- 8 d 0.024 0.17 0.544 1.1 1.
O4 O2- 8 d 0.525 0.161 0.567 1.1 1.
O5 O2- 4 a 0. 0. 0. 1.1 1.
O6 O2- 4 b 0. 0. 0.5 1.1 1.
O7 O2- 8 d 0.021 0.009 0.245 1.1 1.
O8 O2- 8 d 0.096 0.64 0.27 1.1 1.
O9 O2- 8 d 0.018 0.173 0.248 1.1 1.
#End of TTdata_88995-ICSD