
#(C) 2022 by FIZ Karlsruhe - Leibniz Institute for Information Infrastructure.  All rights reserved.
data_239094-ICSD
_database_code_ICSD 239094
_audit_creation_date 2016-08-01
_chemical_name_common 'Bismuth vanadate - B-type'
_chemical_formula_structural 'Bi3.6 V2 O10'
_chemical_formula_sum 'Bi3.6 O10 V2'
_exptl_crystal_density_diffrn 7.19
_citation_title

;
Interlayer communication in aurivillius vanadate to enable defect structures
and charge ordering
;
loop_
_citation_id
_citation_journal_full
_citation_year
_citation_journal_volume
_citation_page_first
_citation_page_last
_citation_journal_id_ASTM
primary 'Inorganic Chemistry' 2015 54 10925 10933 INOCAJ
loop_
_citation_author_citation_id
_citation_author_name
primary 'Zhang, Yaoqing'
primary 'Yamamoto, Takafumi'
primary 'Green, Mark A.'
primary 'Kageyama, Hiroshi'
primary 'Ueda, Yutaka'
_cell_length_a 5.4668
_cell_length_b 17.2323
_cell_length_c 14.9198
_cell_angle_alpha 90.
_cell_angle_beta 90.
_cell_angle_gamma 90.
_cell_volume 1405.53
_cell_formula_units_Z 6
_space_group_name_H-M_alt 'P n m a'
_space_group_IT_number 62
loop_
_space_group_symop_id
_space_group_symop_operation_xyz
1 'x+1/2, y, -z+1/2'
2 'x, -y+1/2, z'
3 '-x+1/2, y+1/2, z+1/2'
4 '-x, -y, -z'
5 '-x+1/2, -y, z+1/2'
6 '-x, y+1/2, -z'
7 'x+1/2, -y+1/2, -z+1/2'
8 'x, y, z'
loop_
_atom_type_symbol
_atom_type_oxidation_number
Bi3+ 3
V4+ 4.6
O2- -2
loop_
_atom_site_label
_atom_site_type_symbol
_atom_site_symmetry_multiplicity
_atom_site_Wyckoff_symbol
_atom_site_fract_x
_atom_site_fract_y
_atom_site_fract_z
_atom_site_U_iso_or_equiv
_atom_site_occupancy
Bi1 Bi3+ 4 c 0.1991 0.25 0.18332 0.68 0.883
Bi2 Bi3+ 4 c 0.2501 0.25 0.8294 0.57 0.885
Bi3 Bi3+ 8 d 0.2656 0.588 0.1659 0.66 0.905
Bi4 Bi3+ 8 d 0.2835 0.0723 0.3322 0.8 0.911
V1 V4+ 4 c 0.251 0.25 0.4721 2.6 1.
V2 V4+ 8 d 0.266 0.1125 0.0133 1.8 1.
O1 O2- 8 d 0.007 0.0162 0.7475 0.57 0.88
O2 O2- 8 d 0.086 0.1327 0.2294 0.57 0.76
O3 O2- 8 d 0.003 0.6743 0.2494 0.57 0.91
O4 O2- 8 d 0.002 0.1684 0.4472 1.75 1.
O5 O2- 8 d 0.004 0.1665 0.0341 1.75 1.
O6 O2- 8 d 0.204 0.5968 0.4001 1.75 1.
O7 O2- 8 d 0.243 0.0282 0.0719 1.75 1.
O8 O2- 4 c 0.301 0.25 0.3297 1.75 0.9
O9 O2- 4 c 0.22 0.25 0.5851 1.75 1.
#End of TTdata_239094-ICSD