
#(C) 2022 by FIZ Karlsruhe - Leibniz Institute for Information Infrastructure.  All rights reserved.
data_100601-ICSD
_database_code_ICSD 100601
_audit_creation_date 1980-01-01
_audit_update_record 2006-04-01
_chemical_name_common 'Bismuth vanadate - HT'
_chemical_formula_structural 'Bi (V O4)'
_chemical_formula_sum 'Bi1 O4 V1'
_chemical_name_structure_type Scheelite#CaWO4
_exptl_crystal_density_diffrn 6.93
_diffrn_ambient_temperature 566.
_citation_title 'Crystal growth and structure of Bi V O4'
loop_
_citation_id
_citation_journal_full
_citation_year
_citation_journal_volume
_citation_page_first
_citation_page_last
_citation_journal_id_ASTM
primary 'Materials Research Bulletin' 1979 14 1571 1581 MRBUAC
loop_
_citation_author_citation_id
_citation_author_name
primary 'Sleight, A.W.'
primary 'Chen, H.-Y.'
primary 'Ferretti, A.'
primary 'Cox, D.E.'
_cell_length_a 5.147
_cell_length_b 5.147
_cell_length_c 11.7216
_cell_angle_alpha 90.
_cell_angle_beta 90.
_cell_angle_gamma 90.
_cell_volume 310.52
_cell_formula_units_Z 4
_space_group_name_H-M_alt 'I 41/a Z'
_space_group_IT_number 88
loop_
_space_group_symop_id
_space_group_symop_operation_xyz
1 '-y+3/4, x+3/4, -z+3/4'
2 'y+1/4, -x+3/4, -z+3/4'
3 'x, y+1/2, -z'
4 '-x, -y, -z'
5 'y+1/4, -x+1/4, z+1/4'
6 '-y+3/4, x+1/4, z+1/4'
7 '-x, -y+1/2, z'
8 'x, y, z'
9 '-y+1/4, x+1/4, -z+1/4'
10 'y+3/4, -x+1/4, -z+1/4'
11 'x+1/2, y, -z+1/2'
12 '-x+1/2, -y+1/2, -z+1/2'
13 'y+3/4, -x+3/4, z+3/4'
14 '-y+1/4, x+3/4, z+3/4'
15 '-x+1/2, -y, z+1/2'
16 'x+1/2, y+1/2, z+1/2'
loop_
_atom_type_symbol
_atom_type_oxidation_number
Bi3+ 3
V5+ 5
O2- -2
loop_
_atom_site_label
_atom_site_type_symbol
_atom_site_symmetry_multiplicity
_atom_site_Wyckoff_symbol
_atom_site_fract_x
_atom_site_fract_y
_atom_site_fract_z
_atom_site_B_iso_or_equiv
_atom_site_occupancy
Bi1 Bi3+ 4 b 0. 0.25 0.625 1.43 1.
V1 V5+ 4 a 0. 0.25 0.125 0.3 1.
O1 O2- 16 f 0.1375 0.0015 0.2034 1.67 1.
#End of TTdata_100601-ICSD