
#(C) 2022 by FIZ Karlsruhe - Leibniz Institute for Information Infrastructure.  All rights reserved.
data_22261-ICSD
_database_code_ICSD 22261
_audit_creation_date 1980-01-01
_audit_update_record 2015-02-01
_chemical_name_common 'Bismuth vanadate'
_chemical_formula_structural 'Bi (V O4)'
_chemical_formula_sum 'Bi1 O4 V1'
_chemical_name_structure_type BiVO4
_chemical_name_mineral Pucherite
_exptl_crystal_density_diffrn 6.63
_citation_title 'The structure of pucherite, Bi V O4'
loop_
_citation_id
_citation_journal_full
_citation_year
_citation_journal_volume
_citation_page_first
_citation_page_last
_citation_journal_id_ASTM
primary 'American Mineralogist' 1953 38 489 500 AMMIAY
loop_
_citation_author_citation_id
_citation_author_name
primary 'Qurashi, M.M.'
primary 'Barnes, W.H.'
_cell_length_a 5.06
_cell_length_b 12.02
_cell_length_c 5.332
_cell_angle_alpha 90.
_cell_angle_beta 90.
_cell_angle_gamma 90.
_cell_volume 324.3
_cell_formula_units_Z 4
_space_group_name_H-M_alt 'P b c n'
_space_group_IT_number 60
loop_
_space_group_symop_id
_space_group_symop_operation_xyz
1 'x, -y, z+1/2'
2 '-x+1/2, y+1/2, z'
3 'x+1/2, y+1/2, -z+1/2'
4 '-x, -y, -z'
5 '-x, y, -z+1/2'
6 'x+1/2, -y+1/2, -z'
7 '-x+1/2, -y+1/2, z+1/2'
8 'x, y, z'
loop_
_atom_type_symbol
_atom_type_oxidation_number
Bi3+ 3
V5+ 5
O2- -2
loop_
_atom_site_label
_atom_site_type_symbol
_atom_site_symmetry_multiplicity
_atom_site_Wyckoff_symbol
_atom_site_fract_x
_atom_site_fract_y
_atom_site_fract_z
_atom_site_B_iso_or_equiv
_atom_site_occupancy
Bi1 Bi3+ 4 c 0. 0.3903 0.25 1.4 1.
V1 V5+ 4 c 0. 0.1062 0.25 1.4 1.
O1 O2- 8 d 0.271 0.032 0.447 1.4 1.
O2 O2- 8 d 0.15 0.196 0.03 1.4 1.
#End of TTdata_22261-ICSD