
#(C) 2022 by FIZ Karlsruhe - Leibniz Institute for Information Infrastructure.  All rights reserved.
data_257457-ICSD
_database_code_ICSD 257457
_audit_creation_date 2018-02-01
_chemical_name_common 'Copper vanadate'
_chemical_formula_structural 'Cu2 V2 O7'
_chemical_formula_sum 'Cu2 O7 V2'
_chemical_name_structure_type Cu2V2O7
_exptl_crystal_density_diffrn 4.04
_citation_title

;
Magnetic structure and Dzyaloshinskii-Moriya interaction in the S = 1/2
helical-honeycomb antiferromagnet alpha-Cu2V2O7
;
loop_
_citation_id
_citation_journal_full
_citation_year
_citation_journal_volume
_citation_page_first
_citation_page_last
_citation_journal_id_ASTM
primary 'Physical Review B: Condensed Matter and Materials Physics' 2015 92 1 10
PRBMDO
loop_
_citation_author_citation_id
_citation_author_name
primary 'Gitgeatpong, G.'
primary 'Zhao, Y.'
primary 'Avdeev, M.'
primary 'Piltz, R.O.'
primary 'Sato, T.J.'
primary 'Matan, K.'
_cell_length_a 8.405
_cell_length_b 20.678
_cell_length_c 6.446
_cell_angle_alpha 90.
_cell_angle_beta 90.
_cell_angle_gamma 90.
_cell_volume 1120.31
_cell_formula_units_Z 8
_space_group_name_H-M_alt 'F d d 2'
_space_group_IT_number 43
loop_
_space_group_symop_id
_space_group_symop_operation_xyz
1 'x+1/4, -y+1/4, z+1/4'
2 '-x+1/4, y+1/4, z+1/4'
3 '-x, -y, z'
4 'x, y, z'
5 'x+1/4, -y+3/4, z+3/4'
6 '-x+1/4, y+3/4, z+3/4'
7 '-x, -y+1/2, z+1/2'
8 'x, y+1/2, z+1/2'
9 'x+3/4, -y+1/4, z+3/4'
10 '-x+3/4, y+1/4, z+3/4'
11 '-x+1/2, -y, z+1/2'
12 'x+1/2, y, z+1/2'
13 'x+3/4, -y+3/4, z+1/4'
14 '-x+3/4, y+3/4, z+1/4'
15 '-x+1/2, -y+1/2, z'
16 'x+1/2, y+1/2, z'
loop_
_atom_type_symbol
_atom_type_oxidation_number
Cu2+ 2
V5+ 5
O2- -2
loop_
_atom_site_label
_atom_site_type_symbol
_atom_site_symmetry_multiplicity
_atom_site_Wyckoff_symbol
_atom_site_fract_x
_atom_site_fract_y
_atom_site_fract_z
_atom_site_U_iso_or_equiv
_atom_site_occupancy
Cu1 Cu2+ 16 b 0.1354 0.16551 0.248 0.0036 1.
V1 V5+ 16 b 0.3454 0.051 0.013 0.0006 1.
O1 O2- 16 b 0.06165 0.25395 0.2277 0.0072 1.
O2 O2- 16 b 0.31224 0.10572 0.2214 0.004 1.
O3 O2- 16 b 0.15392 0.162 0.5449 0.0052 1.
O4 O2- 8 a 0. 0. 0.5993 0.0087 1.
#End of TTdata_257457-ICSD