
#(C) 2022 by FIZ Karlsruhe - Leibniz Institute for Information Infrastructure.  All rights reserved.
data_56460-ICSD
_database_code_ICSD 56460
_audit_creation_date 2003-04-01
_chemical_name_common 'Copper vanadium oxide (0.29/2/5) - beta''
_chemical_formula_structural 'Cu0.29 (V2 O5)'
_chemical_formula_sum 'Cu0.29 O5 V2'
_chemical_name_structure_type NaxV2O5
_exptl_crystal_density_diffrn 3.76
_diffrn_ambient_temperature 296.
_citation_title

;
Vanadium oxide bronzes - the double mixed valence phases Cu(+)xt Cz(2+)x(1-t)
V(5+)2-x(2-t) V(4+)x(2-t) O5. A joint XRD and ESCA investigation
;
loop_
_citation_id
_citation_journal_full
_citation_year
_citation_journal_volume
_citation_page_first
_citation_page_last
_citation_journal_id_ASTM
primary 'Zeitschrift fuer Kristallographie' 1994 209 405 412 ZEKRDZ
loop_
_citation_author_citation_id
_citation_author_name
primary 'Savariault, J.M.'
primary 'Deramond, E.'
primary 'Galy, J.'
_cell_length_a 15.233
_cell_length_b 3.6133
_cell_length_c 10.0927
_cell_angle_alpha 90.
_cell_angle_beta 107.3
_cell_angle_gamma 90.
_cell_volume 530.39
_cell_formula_units_Z 6
_space_group_name_H-M_alt 'C 1 2/m 1'
_space_group_IT_number 12
loop_
_space_group_symop_id
_space_group_symop_operation_xyz
1 '-x, y, -z'
2 '-x, -y, -z'
3 'x, -y, z'
4 'x, y, z'
5 '-x+1/2, y+1/2, -z'
6 '-x+1/2, -y+1/2, -z'
7 'x+1/2, -y+1/2, z'
8 'x+1/2, y+1/2, z'
loop_
_atom_type_symbol
_atom_type_oxidation_number
V4+ 4.84
V4+ 4.73
V4+ 4.97
O2- -2
Cu1+ 1.69
Cu1+ 1.73
loop_
_atom_site_label
_atom_site_type_symbol
_atom_site_symmetry_multiplicity
_atom_site_Wyckoff_symbol
_atom_site_fract_x
_atom_site_fract_y
_atom_site_fract_z
_atom_site_B_iso_or_equiv
_atom_site_occupancy
V1 V4+ 4 i 0.33495 0. 0.09621 0.91 1.
V2 V4+ 4 i 0.11404 0. 0.11991 1.18 1.
V3 V4+ 4 i 0.28683 0. 0.4069 1.33 1.
O1 O2- 2 a 0. 0. 0. 1.66 1.
O2 O2- 4 i 0.8136 0. 0.0509 1.2 1.
O3 O2- 4 i 0.6328 0. 0.0808 1.3 1.
O4 O2- 4 i 0.4344 0. 0.2073 1.61 1.
O5 O2- 4 i 0.2607 0. 0.2216 1.2 1.
O6 O2- 4 i 0.1 0. 0.2722 1.91 1.
O7 O2- 4 i 0.2454 0. 0.5758 1.71 1.
O8 O2- 4 i 0.3957 0. 0.4605 2.07 1.
Cu1 Cu1+ 4 i 0.5411 0. 0.3498 2.61 0.16
Cu2 Cu1+ 8 j 0.0225 0.393 0.368 3.51 0.07
#End of TTdata_56460-ICSD