
#(C) 2022 by FIZ Karlsruhe - Leibniz Institute for Information Infrastructure.  All rights reserved.
data_71313-ICSD
_database_code_ICSD 71313
_audit_creation_date 1993-01-06
_chemical_name_common 'Dibismuth copper oxide'
_chemical_formula_structural 'Bi2 Cu O4'
_chemical_formula_sum 'Bi2 Cu1 O4'
_chemical_name_structure_type CuBi2O4
_exptl_crystal_density_diffrn 8.61
_citation_title

;
Three-dimensional antiferromagnetic order and anisotropic magnetic properties
in Bi2CuO4
;
loop_
_citation_id
_citation_journal_full
_citation_year
_citation_journal_volume
_citation_page_first
_citation_page_last
_citation_journal_id_ASTM
primary 'Journal of the Physical Society of Japan' 1991 60 2406 2414 JUPSAU
loop_
_citation_author_citation_id
_citation_author_name
primary 'Yamada, K.'
primary 'Takada, K.I.'
primary 'Hosoya, S.'
primary 'Watanabe, Y.'
primary 'Endoh, Y.'
primary 'Tomonaga, N.'
primary 'Suzuki, T.'
primary 'Ishigaki, T.'
primary 'Kamiyama, T.'
primary 'Asano, H.'
_cell_length_a 8.5019
_cell_length_b 8.5019
_cell_length_c 5.8196
_cell_angle_alpha 90.
_cell_angle_beta 90.
_cell_angle_gamma 90.
_cell_volume 420.65
_cell_formula_units_Z 4
_space_group_name_H-M_alt 'P 4/n c c Z'
_space_group_IT_number 130
loop_
_space_group_symop_id
_space_group_symop_operation_xyz
1 'y+1/2, x+1/2, -z+1/2'
2 '-y, x+1/2, -z'
3 'y+1/2, -x, -z'
4 '-y, -x, -z+1/2'
5 'x+1/2, y+1/2, -z'
6 '-x, y+1/2, -z+1/2'
7 'x+1/2, -y, -z+1/2'
8 '-x, -y, -z'
9 '-y+1/2, -x+1/2, z+1/2'
10 'y, -x+1/2, z'
11 '-y+1/2, x, z'
12 'y, x, z+1/2'
13 '-x+1/2, -y+1/2, z'
14 'x, -y+1/2, z+1/2'
15 '-x+1/2, y, z+1/2'
16 'x, y, z'
loop_
_atom_type_symbol
_atom_type_oxidation_number
Bi3+ 3
Cu2+ 2
O2- -2
loop_
_atom_site_label
_atom_site_type_symbol
_atom_site_symmetry_multiplicity
_atom_site_Wyckoff_symbol
_atom_site_fract_x
_atom_site_fract_y
_atom_site_fract_z
_atom_site_B_iso_or_equiv
_atom_site_occupancy
Bi1 Bi3+ 8 f 0.41862 0.58138 0.25 . 1.
Cu1 Cu2+ 4 c 0.25 0.25 0.079 . 1.
O1 O2- 16 g 0.04948 0.142 0.0909 . 1.
loop_
_atom_site_aniso_label
_atom_site_aniso_type_symbol
_atom_site_aniso_U_11
_atom_site_aniso_U_22
_atom_site_aniso_U_33
_atom_site_aniso_U_12
_atom_site_aniso_U_13
_atom_site_aniso_U_23
Bi1 Bi3+ 0.0043 0.0054 0.0105 0.0007 0. 0.
Cu1 Cu2+ 0.0038 0.0038 0.0128 0. 0. 0.
O1 O2- 0.0063 0.0051 0.0142 -0.0009 -0.0019 0.001
#End of TTdata_71313-ICSD