
#(C) 2022 by FIZ Karlsruhe - Leibniz Institute for Information Infrastructure.  All rights reserved.
data_201626-ICSD
_database_code_ICSD 201626
_audit_creation_date 1985-07-17
_audit_update_record 1998-06-26
_chemical_name_common 'Undecacopper dioxide hexakis(vanadate)'
_chemical_formula_structural 'Cu11 O2 (V O4)6'
_chemical_formula_sum 'Cu11 O26 V6'
_chemical_name_mineral Fingerite
_exptl_crystal_density_diffrn 4.78
_citation_title

;
Fingerite Cu11 O2 (V O4)6: a new vanadium sublimate from Izalco Volcano, El
Salvador: crystal structure
;
loop_
_citation_id
_citation_journal_full
_citation_year
_citation_journal_volume
_citation_page_first
_citation_page_last
_citation_journal_id_ASTM
primary 'American Mineralogist' 1985 70 197 199 AMMIAY
loop_
_citation_author_citation_id
_citation_author_name
primary 'Finger, L.W.'
_cell_length_a 8.0437
_cell_length_b 8.1576
_cell_length_c 8.2691
_cell_angle_alpha 106.441
_cell_angle_beta 107.144
_cell_angle_gamma 91.389
_cell_volume 493.84
_cell_formula_units_Z 1
_space_group_name_H-M_alt 'P -1'
_space_group_IT_number 2
loop_
_space_group_symop_id
_space_group_symop_operation_xyz
1 '-x, -y, -z'
2 'x, y, z'
loop_
_atom_type_symbol
_atom_type_oxidation_number
Cu2+ 2
V5+ 5
O2- -2
loop_
_atom_site_label
_atom_site_type_symbol
_atom_site_symmetry_multiplicity
_atom_site_Wyckoff_symbol
_atom_site_fract_x
_atom_site_fract_y
_atom_site_fract_z
_atom_site_B_iso_or_equiv
_atom_site_occupancy
Cu1 Cu2+ 1 a 0. 0. 0. 0.56 1.
Cu2 Cu2+ 2 i 0.2779 0.159 0.8545 0.64 1.
Cu3 Cu2+ 2 i 0.4992 0.2954 0.6628 0.57 1.
Cu4 Cu2+ 2 i 0.2771 0.5807 0.5078 0.71 1.
Cu5 Cu2+ 2 i 0.1266 0.7845 0.2522 0.6 1.
Cu6 Cu2+ 2 i 0.1485 0.3711 0.146 1.12 1.
V1 V5+ 2 i 0.4325 0.0975 0.2463 0.41 1.
V2 V5+ 2 i 0.0781 0.1871 0.4376 0.38 1.
V3 V5+ 2 i 0.7333 0.4113 0.0652 0.39 1.
O1 O2- 2 i 0.4869 0.2945 0.4243 0.64 1.
O2 O2- 2 i 0.0891 0.7876 0.4785 0.7 1.
O3 O2- 2 i 0.1138 0.3628 0.37 0.74 1.
O4 O2- 2 i 0.2596 0.1817 0.6089 0.68 1.
O5 O2- 2 i 0.02 0.9997 0.2491 0.57 1.
O6 O2- 2 i 0.6232 0.0498 0.6744 0.82 1.
O7 O2- 2 i 0.1814 0.3804 0.9268 0.61 1.
O8 O2- 2 i 0.885 0.2713 0.0093 0.65 1.
O9 O2- 2 i 0.2405 0.1243 0.073 0.61 1.
O10 O2- 2 i 0.2631 0.5976 0.2776 0.52 1.
O11 O2- 2 i 0.4669 0.6677 0.0867 0.72 1.
O12 O2- 2 i 0.7179 0.4286 0.2645 1.05 1.
O13 O2- 2 i 0.6063 0.0454 0.1815 0.78 1.
#End of TTdata_201626-ICSD