
#(C) 2022 by FIZ Karlsruhe - Leibniz Institute for Information Infrastructure.  All rights reserved.
data_75968-ICSD
_database_code_ICSD 75968
_audit_creation_date 1996-04-22
_audit_update_record 2016-02-01
_chemical_name_common 'Vanadium bismuth oxide (0.9/8.1/14)'
_chemical_formula_structural 'V0.9 Bi8.1 O14'
_chemical_formula_sum 'Bi8.1 O14 V0.9'
_exptl_crystal_density_diffrn 8.54
_citation_title 'X-ray study of the superstructure in the Bi2 O3 - V2 O5 system'
loop_
_citation_id
_citation_journal_full
_citation_year
_citation_journal_volume
_citation_page_first
_citation_page_last
_citation_journal_id_ASTM
primary 'Journal of the Physical Society of Japan' 1994 63 4422 4426 JUPSAU
loop_
_citation_author_citation_id
_citation_author_name
primary 'Kashida, S.'
primary 'Hori, T.'
primary 'Nakamura, K.'
_cell_length_a 11.7239
_cell_length_b 11.7239
_cell_length_c 28.8612
_cell_angle_alpha 90.
_cell_angle_beta 90.
_cell_angle_gamma 120.
_cell_volume 3435.49
_cell_formula_units_Z 9
_space_group_name_H-M_alt 'R 3 m H'
_space_group_IT_number 160
loop_
_space_group_symop_id
_space_group_symop_operation_xyz
1 '-x+y, y, z'
2 'x, x-y, z'
3 '-y, -x, z'
4 '-x+y, -x, z'
5 '-y, x-y, z'
6 'x, y, z'
7 '-x+y+2/3, y+1/3, z+1/3'
8 'x+2/3, x-y+1/3, z+1/3'
9 '-y+2/3, -x+1/3, z+1/3'
10 '-x+y+2/3, -x+1/3, z+1/3'
11 '-y+2/3, x-y+1/3, z+1/3'
12 'x+2/3, y+1/3, z+1/3'
13 '-x+y+1/3, y+2/3, z+2/3'
14 'x+1/3, x-y+2/3, z+2/3'
15 '-y+1/3, -x+2/3, z+2/3'
16 '-x+y+1/3, -x+2/3, z+2/3'
17 '-y+1/3, x-y+2/3, z+2/3'
18 'x+1/3, y+2/3, z+2/3'
loop_
_atom_type_symbol
_atom_type_oxidation_number
V4+ 4.111
Bi3+ 3
V4+ 4.111
Bi3+ 3
V4+ 4.111
Bi3+ 3
O2- -2
loop_
_atom_site_label
_atom_site_type_symbol
_atom_site_symmetry_multiplicity
_atom_site_Wyckoff_symbol
_atom_site_fract_x
_atom_site_fract_y
_atom_site_fract_z
_atom_site_U_iso_or_equiv
_atom_site_occupancy
V1 V4+ 3 a 0. 0. 0. 0.029 0.9
Bi1 Bi3+ 3 a 0. 0. 0. 0.029 0.1
V2 V4+ 3 a 0. 0. 0.33 0.027 0.9
Bi2 Bi3+ 3 a 0. 0. 0.33 0.027 0.1
V3 V4+ 3 a 0. 0. 0.671 0.019 0.9
Bi3 Bi3+ 3 a 0. 0. 0.671 0.019 0.1
Bi4 Bi3+ 9 b 0.22467 0.77533 0.10433 0.037 1.
Bi5 Bi3+ 9 b 0.44933 0.55067 0.20667 0.043 1.
Bi6 Bi3+ 9 b 0.554 0.446 0.439 0.072 1.
Bi7 Bi3+ 9 b 0.78033 0.21967 0.21567 0.019 1.
Bi8 Bi3+ 9 b 0.11233 0.88767 0.21367 0.027 1.
Bi9 Bi3+ 9 b 0.56033 0.43967 0.09867 0.061 1.
Bi10 Bi3+ 18 c 0.01433 0.34267 0.32267 0.032 1.
O1 O2- 3 a 0. 0. 0.07 0.124 1.
O2 O2- 3 a 0. 0. 0.42 0.024 1.
O3 O2- 3 a 0. 0. 0.598 0.015 1.
O4 O2- 9 b 0.542 0.458 0.511 0.107 1.
O5 O2- 9 b 0.79133 0.20867 0.30867 0.097 1.
O6 O2- 9 b 0.769 0.231 0.139 0.08 1.
O7 O2- 9 b 0.104 0.896 0.321 0.112 1.
O8 O2- 9 b 0.213 0.787 0.182 0.112 1.
O9 O2- 9 b 0.56933 0.43067 0.05767 0.08 1.
O10 O2- 9 b 0.458 0.542 0.178 0.061 1.
O11 O2- 9 b 0.117 0.883 0.135 0.073 1.
O12 O2- 9 b 0.56333 0.43667 0.19567 0.063 1.
O13 O2- 18 c 0.01433 0.31667 0.06567 0.075 1.
O14 O2- 18 c 0.035 0.368 0.289 0.048 1.
#End of TTdata_75968-ICSD