
#(C) 2022 by FIZ Karlsruhe - Leibniz Institute for Information Infrastructure.  All rights reserved.
data_30907-ICSD
_database_code_ICSD 30907
_audit_creation_date 1986-04-14
_audit_update_record 1999-01-19
_chemical_name_common 'Bismuth Vanadate'
_chemical_formula_structural 'Bi (V O4)'
_chemical_formula_sum 'Bi1 O4 V1'
_chemical_name_structure_type BiVO4
_chemical_name_mineral Pucherite
_exptl_crystal_density_diffrn 6.66
_diffrn_ambient_temperature 291.
_citation_title 'Refinement of pucherite, Bi V O4'
loop_
_citation_id
_citation_journal_full
_citation_year
_citation_journal_volume
_citation_page_first
_citation_page_last
_citation_journal_id_ASTM
primary 'Zeitschrift fuer Kristallographie' 1984 169 289 294 ZEKRDZ
loop_
_citation_author_citation_id
_citation_author_name
primary 'Granzin, J.'
primary 'Pohl, D.'
_cell_length_a 5.052
_cell_length_b 12.003
_cell_length_c 5.328
_cell_angle_alpha 90.
_cell_angle_beta 90.
_cell_angle_gamma 90.
_cell_volume 323.09
_cell_formula_units_Z 4
_space_group_name_H-M_alt 'P b c n'
_space_group_IT_number 60
loop_
_space_group_symop_id
_space_group_symop_operation_xyz
1 'x, -y, z+1/2'
2 '-x+1/2, y+1/2, z'
3 'x+1/2, y+1/2, -z+1/2'
4 '-x, -y, -z'
5 '-x, y, -z+1/2'
6 'x+1/2, -y+1/2, -z'
7 '-x+1/2, -y+1/2, z+1/2'
8 'x, y, z'
loop_
_atom_type_symbol
_atom_type_oxidation_number
Bi3+ 3
V5+ 5
O2- -2
loop_
_atom_site_label
_atom_site_type_symbol
_atom_site_symmetry_multiplicity
_atom_site_Wyckoff_symbol
_atom_site_fract_x
_atom_site_fract_y
_atom_site_fract_z
_atom_site_B_iso_or_equiv
_atom_site_occupancy
Bi1 Bi3+ 4 c 0. 0.3904 0.25 . 1.
V1 V5+ 4 c 0. 0.1062 0.25 . 1.
O1 O2- 8 d 0.258 0.0336 0.417 . 1.
O2 O2- 8 d 0.143 0.1923 0.042 . 1.
loop_
_atom_site_aniso_label
_atom_site_aniso_type_symbol
_atom_site_aniso_beta_11
_atom_site_aniso_beta_22
_atom_site_aniso_beta_33
_atom_site_aniso_beta_12
_atom_site_aniso_beta_13
_atom_site_aniso_beta_23
Bi1 Bi3+ 0.0089 0.007 0.0015 -0.0009 0. 0.
V1 V5+ 0.0091 0.0058 0.0014 0.001 0. 0.
O1 O2- 0.006 0.01 0.0027 0.004 -0.0013 -0.003
O2 O2- 0.01 0.013 0.0016 0. 0.0009 0.
#End of TTdata_30907-ICSD