
#(C) 2022 by FIZ Karlsruhe - Leibniz Institute for Information Infrastructure.  All rights reserved.
data_156051-ICSD
_database_code_ICSD 156051
_audit_creation_date 2007-08-01
_audit_update_record 2012-02-01
_chemical_name_common 'Vanadium oxide - beta'
_chemical_formula_structural 'V2 O5'
_chemical_formula_sum 'O5 V2'
_chemical_name_structure_type V2O5(P21/m)
_exptl_crystal_density_diffrn 3.77
_citation_title
'V2 O5 phase diagram revisited at high pressures and high temperatures'
loop_
_citation_id
_citation_journal_full
_citation_year
_citation_journal_volume
_citation_page_first
_citation_page_last
_citation_journal_id_ASTM
primary 'Journal of Alloys and Compounds' 2007 429 87 98 JALCEU
loop_
_citation_author_citation_id
_citation_author_name
primary 'Balog, P.'
primary 'Orosel, D.'
primary 'Cancarevic, Z.'
primary 'Schoen, C.'
primary 'Jansen, M.'
_cell_length_a 6.2903
_cell_length_b 3.5791
_cell_length_c 7.1118
_cell_angle_alpha 90.
_cell_angle_beta 90.15
_cell_angle_gamma 90.
_cell_volume 160.11
_cell_formula_units_Z 2
_space_group_name_H-M_alt 'P 1 21/m 1'
_space_group_IT_number 11
loop_
_space_group_symop_id
_space_group_symop_operation_xyz
1 'x, -y+1/2, z'
2 '-x, -y, -z'
3 '-x, y+1/2, -z'
4 'x, y, z'
loop_
_atom_type_symbol
_atom_type_oxidation_number
V5+ 5
O2- -2
loop_
_atom_site_label
_atom_site_type_symbol
_atom_site_symmetry_multiplicity
_atom_site_Wyckoff_symbol
_atom_site_fract_x
_atom_site_fract_y
_atom_site_fract_z
_atom_site_U_iso_or_equiv
_atom_site_occupancy
V1 V5+ 2 e 0.1927 0.25 0.3983 0.011 1.
V2 V5+ 2 e 0.737 0.25 0.2214 0.013 1.
O1 O2- 2 e 0.4382 0.25 0.324 -0.015 1.
O2 O2- 2 e 0.855 0.25 0.5304 -0.008 1.
O3 O2- 2 e 0.681 0.25 0.0063 0.003 1.
O4 O2- 2 e 0.0337 0.25 0.1993 -0.017 1.
O5 O2- 2 e 0.2635 0.25 0.7034 0.003 1.
#End of TTdata_156051-ICSD