
#(C) 2022 by FIZ Karlsruhe - Leibniz Institute for Information Infrastructure.  All rights reserved.
data_89236-ICSD
_database_code_ICSD 89236
_audit_creation_date 2001-07-16
_chemical_name_common 'Copper dioxide'
_chemical_formula_structural 'Cu O2'
_chemical_formula_sum 'Cu1 O2'
_exptl_crystal_density_diffrn 2.79
_citation_title

;
Structure determination by electron diffraction and HREM of the incommensurate
modulated phase Bax Cu O2 (0.67 < x < 0.70)
;
loop_
_citation_id
_citation_journal_full
_citation_year
_citation_journal_volume
_citation_page_first
_citation_page_last
_citation_journal_id_ASTM
primary
'Physica C: Superconductivity and Ist Application (Amsterdam, Netherlands)' 1999 328 89 103 PHYCE6
loop_
_citation_author_citation_id
_citation_author_name
primary 'Migliori, A.'
primary 'Gemmi, M.'
primary 'Calestani, G.'
primary 'Belletti, D.'
primary 'Matacotta, F.C.'
primary 'Dionigi, C.'
primary 'Nozar, P.'
_cell_length_a 2.73
_cell_length_b 7.3
_cell_length_c 11.4
_cell_angle_alpha 90.
_cell_angle_beta 90.
_cell_angle_gamma 90.
_cell_volume 227.19
_cell_formula_units_Z 4
_space_group_name_H-M_alt 'F 2 2 2'
_space_group_IT_number 22
loop_
_space_group_symop_id
_space_group_symop_operation_xyz
1 '-x, y, -z'
2 'x, -y, -z'
3 '-x, -y, z'
4 'x, y, z'
5 '-x, y+1/2, -z+1/2'
6 'x, -y+1/2, -z+1/2'
7 '-x, -y+1/2, z+1/2'
8 'x, y+1/2, z+1/2'
9 '-x+1/2, y, -z+1/2'
10 'x+1/2, -y, -z+1/2'
11 '-x+1/2, -y, z+1/2'
12 'x+1/2, y, z+1/2'
13 '-x+1/2, y+1/2, -z'
14 'x+1/2, -y+1/2, -z'
15 '-x+1/2, -y+1/2, z'
16 'x+1/2, y+1/2, z'
loop_
_atom_type_symbol
_atom_type_oxidation_number
Cu0+ 0
O0+ 0
loop_
_atom_site_label
_atom_site_type_symbol
_atom_site_symmetry_multiplicity
_atom_site_Wyckoff_symbol
_atom_site_fract_x
_atom_site_fract_y
_atom_site_fract_z
_atom_site_B_iso_or_equiv
_atom_site_occupancy
Cu1 Cu0+ 4 a 0. 0. 0. . 1.
O1 O0+ 8 g 0. 0. 0.4 . 1.
#End of TTdata_89236-ICSD