
#(C) 2022 by FIZ Karlsruhe - Leibniz Institute for Information Infrastructure.  All rights reserved.
data_248809-ICSD
_database_code_ICSD 248809
_audit_creation_date 2015-02-01
_chemical_name_common 'Bismuth iron oxide (24.22/1.78/38.88)'
_chemical_formula_structural 'Bi23.55 V1.97 O40'
_chemical_formula_sum 'Bi23.55 O40 V1.97'
_chemical_name_structure_type Sillenite#Bi12SiO20
_exptl_crystal_density_diffrn 8.87
_citation_title

;
Development of methods of X-ray diffraction analysis for determining the
composition and structure of sillenite-family crystals
;
loop_
_citation_id
_citation_journal_full
_citation_year
_citation_journal_volume
_citation_page_first
_citation_page_last
_citation_journal_id_ASTM
primary 'Crystallography Reports' 2014 59 155 159 CYSTE3
loop_
_citation_author_citation_id
_citation_author_name
primary 'Mel'nikova, T.I.'
primary 'Kuz'micheva, G.M.'
primary 'Bolotina, N.B.'
primary 'Sadovskaya, N.V.'
_cell_length_a 10.1943
_cell_length_b 10.1943
_cell_length_c 10.1943
_cell_angle_alpha 90.
_cell_angle_beta 90.
_cell_angle_gamma 90.
_cell_volume 1059.43
_cell_formula_units_Z 1
_space_group_name_H-M_alt 'I 2 3'
_space_group_IT_number 197
loop_
_space_group_symop_id
_space_group_symop_operation_xyz
1 '-z, -x, y'
2 '-y, -z, x'
3 '-x, -y, z'
4 '-z, x, -y'
5 '-y, z, -x'
6 '-x, y, -z'
7 'z, -x, -y'
8 'y, -z, -x'
9 'x, -y, -z'
10 'z, x, y'
11 'y, z, x'
12 'x, y, z'
13 '-z+1/2, -x+1/2, y+1/2'
14 '-y+1/2, -z+1/2, x+1/2'
15 '-x+1/2, -y+1/2, z+1/2'
16 '-z+1/2, x+1/2, -y+1/2'
17 '-y+1/2, z+1/2, -x+1/2'
18 '-x+1/2, y+1/2, -z+1/2'
19 'z+1/2, -x+1/2, -y+1/2'
20 'y+1/2, -z+1/2, -x+1/2'
21 'x+1/2, -y+1/2, -z+1/2'
22 'z+1/2, x+1/2, y+1/2'
23 'y+1/2, z+1/2, x+1/2'
24 'x+1/2, y+1/2, z+1/2'
loop_
_atom_type_symbol
_atom_type_oxidation_number
Bi3+ 3
V4+ 4.75
O2- -2
loop_
_atom_site_label
_atom_site_type_symbol
_atom_site_symmetry_multiplicity
_atom_site_Wyckoff_symbol
_atom_site_fract_x
_atom_site_fract_y
_atom_site_fract_z
_atom_site_U_iso_or_equiv
_atom_site_occupancy
Bi1 Bi3+ 24 f 0.178 0.32239 0.47686 0.01104 0.98
Bi2 Bi3+ 2 a 0. 0. 0. 0.0064 0.017
V1 V4+ 2 a 0. 0. 0. 0.0064 0.983
O1 O2- 24 f 0.0102 0.252 0.3668 0.0123 1.
O2 O2- 8 c 0.3017 0.3017 0.3017 0.0111 1.
O3 O2- 8 c 0.0952 0.0952 0.0952 0.0214 1.
#End of TTdata_248809-ICSD