
#(C) 2022 by FIZ Karlsruhe - Leibniz Institute for Information Infrastructure.  All rights reserved.
data_19013-ICSD
_database_code_ICSD 19013
_audit_creation_date 1980-01-01
_audit_update_record 2006-04-01
_chemical_name_common 'Vanadium oxide (4/7)'
_chemical_formula_structural 'V4 O7'
_chemical_formula_sum 'O7 V4'
_chemical_name_structure_type V4O7
_exptl_crystal_density_diffrn 4.75
_diffrn_ambient_temperature 200.
_citation_title 'Structural aspects of the metal-insulator transition in V4 O7'
loop_
_citation_id
_citation_journal_full
_citation_year
_citation_journal_volume
_citation_page_first
_citation_page_last
_citation_journal_id_ASTM
primary 'Journal of Solid State Chemistry' 1973 6 419 429 JSSCBI
loop_
_citation_author_citation_id
_citation_author_name
primary 'Marezio, M.'
primary 'McWhan, D.B.'
primary 'Dernier, P.D.'
primary 'Remeika, J.P.'
_cell_length_a 5.514
_cell_length_b 7.004
_cell_length_c 12.26
_cell_angle_alpha 94.86
_cell_angle_beta 95.14
_cell_angle_gamma 109.3
_cell_volume 441.77
_cell_formula_units_Z 4
_space_group_name_H-M_alt 'A -1'
_space_group_IT_number 2
loop_
_space_group_symop_id
_space_group_symop_operation_xyz
1 '-x, -y, -z'
2 'x, y, z'
3 '-x, -y+1/2, -z+1/2'
4 'x, y+1/2, z+1/2'
loop_
_atom_type_symbol
_atom_type_oxidation_number
V3+ 3.5
O2- -2
loop_
_atom_site_label
_atom_site_type_symbol
_atom_site_symmetry_multiplicity
_atom_site_Wyckoff_symbol
_atom_site_fract_x
_atom_site_fract_y
_atom_site_fract_z
_atom_site_B_iso_or_equiv
_atom_site_occupancy
V1 V3+ 4 i 0.20403 0.14097 0.06209 . 1.
V2 V3+ 4 i 0.23447 0.65444 0.06923 . 1.
V3 V3+ 4 i 0.6856 0.44065 0.19798 . 1.
V4 V3+ 4 i 0.68157 0.94085 0.20017 . 1.
O1 O2- 4 i 0.1055 0.8543 0.0138 . 1.
O2 O2- 4 i 0.592 0.7932 0.0472 . 1.
O3 O2- 4 i 0.8571 0.4942 0.086 . 1.
O4 O2- 4 i 0.3305 0.4347 0.1373 . 1.
O5 O2- 4 i 0.5247 0.1449 0.1643 . 1.
O6 O2- 4 i 0.0418 0.0662 0.1948 . 1.
O7 O2- 4 i 0.2955 0.7925 0.225 . 1.
loop_
_atom_site_aniso_label
_atom_site_aniso_type_symbol
_atom_site_aniso_beta_11
_atom_site_aniso_beta_22
_atom_site_aniso_beta_33
_atom_site_aniso_beta_12
_atom_site_aniso_beta_13
_atom_site_aniso_beta_23
V1 V3+ 0.0026 0.0016 0.00048 0.00058 0.00004 0.00019
V2 V3+ 0.0024 0.0014 0.00053 0.00037 0.00019 0.00024
V3 V3+ 0.0019 0.0015 0.00044 0.00029 0.00021 0.00021
V4 V3+ 0.0023 0.0015 0.00063 0.00067 0.0004 0.00039
O1 O2- 0.0028 0.0017 0.0008 0.0008 -0.0001 0.0002
O2 O2- 0.0039 0.0025 0.0008 0.0011 0. 0.0002
O3 O2- 0.0033 0.0026 0.0006 0.0005 0.0001 0.0004
O4 O2- 0.0032 0.0019 0.0009 0.0005 0.0001 0.
O5 O2- 0.0034 0.0013 0.0008 0.0004 0.0002 0.0002
O6 O2- 0.0025 0.0029 0.0008 0.0007 0. 0.0002
O7 O2- 0.0037 0.0016 0.0007 0.001 -0.0002 0.0002
#End of TTdata_19013-ICSD