
#(C) 2022 by FIZ Karlsruhe - Leibniz Institute for Information Infrastructure.  All rights reserved.
data_73856-ICSD
_database_code_ICSD 73856
_audit_creation_date 1995-01-10
_chemical_name_common 'Vanadium(IV) oxide - LT'
_chemical_formula_structural 'V O2'
_chemical_formula_sum 'O2 V1'
_chemical_name_structure_type VO2(HT)
_exptl_crystal_density_diffrn 4.03
_diffrn_ambient_temperature 50.
_citation_title 'Phase transition and V4+-V4+ pairing in VO2(B)'
loop_
_citation_id
_citation_journal_full
_citation_year
_citation_journal_volume
_citation_page_first
_citation_page_last
_citation_journal_id_ASTM
primary 'Journal of Solid State Chemistry' 1993 105 271 278 JSSCBI
loop_
_citation_author_citation_id
_citation_author_name
primary 'Oka, Y.'
primary 'Yao, T.'
primary 'Yamamoto, N.'
primary 'Ueda, Y.'
primary 'Hayashi, A.'
_cell_length_a 12.152
_cell_length_b 3.7199
_cell_length_c 6.347
_cell_angle_alpha 90.
_cell_angle_beta 107.58
_cell_angle_gamma 90.
_cell_volume 273.51
_cell_formula_units_Z 8
_space_group_name_H-M_alt 'C 1 2/m 1'
_space_group_IT_number 12
loop_
_space_group_symop_id
_space_group_symop_operation_xyz
1 '-x, y, -z'
2 '-x, -y, -z'
3 'x, -y, z'
4 'x, y, z'
5 '-x+1/2, y+1/2, -z'
6 '-x+1/2, -y+1/2, -z'
7 'x+1/2, -y+1/2, z'
8 'x+1/2, y+1/2, z'
loop_
_atom_type_symbol
_atom_type_oxidation_number
V4+ 4
O2- -2
loop_
_atom_site_label
_atom_site_type_symbol
_atom_site_symmetry_multiplicity
_atom_site_Wyckoff_symbol
_atom_site_fract_x
_atom_site_fract_y
_atom_site_fract_z
_atom_site_B_iso_or_equiv
_atom_site_occupancy
V1 V4+ 4 i 0.2036 0. 0.2751 . 1.
V2 V4+ 4 i 0.096 0. 0.6719 . 1.
O1 O2- 4 i 0.1488 0. 0.0056 . 1.
O2 O2- 4 i 0.2672 0. 0.6498 . 1.
O3 O2- 4 i 0.0599 0. 0.3455 . 1.
O4 O2- 4 i 0.3954 0. 0.3208 . 1.
#End of TTdata_73856-ICSD