
#(C) 2022 by FIZ Karlsruhe - Leibniz Institute for Information Infrastructure.  All rights reserved.
data_241496-ICSD
_database_code_ICSD 241496
_audit_creation_date 2017-08-01
_chemical_name_common 'Bismuth vanadate(V)'
_chemical_formula_structural 'Bi (V O4)'
_chemical_formula_sum 'Bi1 O4 V1'
_chemical_name_structure_type Fergusonite#YNbO4(mS24)
_exptl_crystal_density_diffrn 6.95
_citation_title

;
Catalytic effect of Bi5+ in enhanced solar water splitting of tetragonal Bi
V0.8 Mo0.2 O4
;
_publ_section_comment 'Cell and Type only determined'
loop_
_citation_id
_citation_journal_full
_citation_year
_citation_journal_volume
_citation_page_first
_citation_page_last
_citation_journal_id_ASTM
primary 'Applied catalysis, A: General' 2016 526 21 27 ACAGE4
loop_
_citation_author_citation_id
_citation_author_name
primary 'Antony, Rajini P.'
primary 'Baikie, Tom'
primary 'Chiam, Sing Yang'
primary 'Ren, Yi'
primary 'Prabhakar, Rajiv Ramanujam'
primary 'Batabyal, Sudip K.'
primary 'Loo, Say Chye Joachim'
primary 'Barber, James'
primary 'Wong, Lydia Helena'
_cell_length_a 7.2525
_cell_length_b 11.69
_cell_length_c 5.091
_cell_angle_alpha 90.
_cell_angle_beta 134.183
_cell_angle_gamma 90.
_cell_volume 309.52
_cell_formula_units_Z 4
_space_group_name_H-M_alt 'C 1 2/c 1'
_space_group_IT_number 15
loop_
_space_group_symop_id
_space_group_symop_operation_xyz
1 'x, -y, z+1/2'
2 '-x, -y, -z'
3 '-x, y, -z+1/2'
4 'x, y, z'
5 'x+1/2, -y+1/2, z+1/2'
6 '-x+1/2, -y+1/2, -z'
7 '-x+1/2, y+1/2, -z+1/2'
8 'x+1/2, y+1/2, z'
loop_
_atom_type_symbol
_atom_type_oxidation_number
Bi3+ 3
V5+ 5
O2- -2
loop_
_atom_site_label
_atom_site_type_symbol
_atom_site_symmetry_multiplicity
_atom_site_Wyckoff_symbol
_atom_site_fract_x
_atom_site_fract_y
_atom_site_fract_z
_atom_site_B_iso_or_equiv
_atom_site_occupancy
Bi1 Bi3+ 4 e 0. 0.13 0.25 . 1.
V1 V5+ 4 e 0. 0.63 0.25 . 1.
O1 O2- 8 f 0.15 0.29 0.16 . 1.
O2 O2- 8 f 0.26 0.05 0.14 . 1.
#End of TTdata_241496-ICSD