
#(C) 2022 by FIZ Karlsruhe - Leibniz Institute for Information Infrastructure.  All rights reserved.
data_250831-ICSD
_database_code_ICSD 250831
_audit_creation_date 2015-02-01
_chemical_name_common 'Vanadium dioxide - HT'
_chemical_formula_structural 'V O2'
_chemical_formula_sum 'O2 V1'
_chemical_name_structure_type VO2(HT)
_exptl_crystal_density_diffrn 4.03
_citation_title

;
Rapid hydrothermal synthesis of VO2 (B) and its conversion to thermochromic
VO2 (M1)
;
loop_
_citation_id
_citation_journal_full
_citation_year
_citation_journal_volume
_citation_page_first
_citation_page_last
_citation_journal_id_ASTM
primary 'Inorganic Chemistry' 2013 52 4780 4785 INOCAJ
loop_
_citation_author_citation_id
_citation_author_name
primary 'Popuri, Srinivasa Rao'
primary 'Miclau, Marinela'
primary 'Artemenko, Alla'
primary 'Labrugere, Christine'
primary 'Villesuzanne, Antoine'
primary 'Pollet, Michael'
_cell_length_a 12.0417
_cell_length_b 3.6892
_cell_length_c 6.4312
_cell_angle_alpha 90.
_cell_angle_beta 106.965
_cell_angle_gamma 90.
_cell_volume 273.27
_cell_formula_units_Z 8
_space_group_name_H-M_alt 'C 1 2/m 1'
_space_group_IT_number 12
loop_
_space_group_symop_id
_space_group_symop_operation_xyz
1 '-x, y, -z'
2 '-x, -y, -z'
3 'x, -y, z'
4 'x, y, z'
5 '-x+1/2, y+1/2, -z'
6 '-x+1/2, -y+1/2, -z'
7 'x+1/2, -y+1/2, z'
8 'x+1/2, y+1/2, z'
loop_
_atom_type_symbol
_atom_type_oxidation_number
V4+ 4
O2- -2
loop_
_atom_site_label
_atom_site_type_symbol
_atom_site_symmetry_multiplicity
_atom_site_Wyckoff_symbol
_atom_site_fract_x
_atom_site_fract_y
_atom_site_fract_z
_atom_site_B_iso_or_equiv
_atom_site_occupancy
V1 V4+ 4 i 0.1997 0. 0.285 . 1.
V2 V4+ 4 i 0.0995 0. 0.6896 . 1.
O1 O2- 4 i 0.1409 0. 0.013 . 1.
O2 O2- 4 i 0.2719 0. 0.684 . 1.
O3 O2- 4 i 0.0466 0. 0.323 . 1.
O4 O2- 4 i 0.3673 0. 0.291 . 1.
#End of TTdata_250831-ICSD