
#(C) 2022 by FIZ Karlsruhe - Leibniz Institute for Information Infrastructure.  All rights reserved.
data_173880-ICSD
_database_code_ICSD 173880
_audit_creation_date 2009-08-01
_chemical_name_common 'Copper vanadium oxide (0.95/2/5) - epsilon'
_chemical_formula_structural 'Cu0.95 V2 O5'
_chemical_formula_sum 'Cu0.95 O5 V2'
_exptl_crystal_density_diffrn 4.44
_diffrn_ambient_temperature 293.
_citation_title

;
Ionic diffusion mastering using crystal-chemistry parameters: tau-Cu1/2 Ag1/2
V2 O5 structure determination and comparison with refined delta-Ag(x) V2 O5
and epsilon-Cu(x) V2 O5 ones
;
loop_
_citation_id
_citation_journal_full
_citation_year
_citation_journal_volume
_citation_page_first
_citation_page_last
_citation_journal_id_ASTM
primary 'Journal of Solid State Chemistry' 2009 182 1481 1491 JSSCBI
loop_
_citation_author_citation_id
_citation_author_name
primary 'Rozier, P.'
primary 'Dolle, M.'
primary 'Galy, J.'
_cell_length_a 11.765
_cell_length_b 3.6943
_cell_length_c 8.9712
_cell_angle_alpha 90.
_cell_angle_beta 111.573
_cell_angle_gamma 90.
_cell_volume 362.61
_cell_formula_units_Z 4
_space_group_name_H-M_alt 'C 1 2/m 1'
_space_group_IT_number 12
loop_
_space_group_symop_id
_space_group_symop_operation_xyz
1 '-x, y, -z'
2 '-x, -y, -z'
3 'x, -y, z'
4 'x, y, z'
5 '-x+1/2, y+1/2, -z'
6 '-x+1/2, -y+1/2, -z'
7 'x+1/2, -y+1/2, z'
8 'x+1/2, y+1/2, z'
loop_
_atom_type_symbol
_atom_type_oxidation_number
Cu1+ 1
V4+ 4.5325
O2- -2
loop_
_atom_site_label
_atom_site_type_symbol
_atom_site_symmetry_multiplicity
_atom_site_Wyckoff_symbol
_atom_site_fract_x
_atom_site_fract_y
_atom_site_fract_z
_atom_site_U_iso_or_equiv
_atom_site_occupancy
Cu1 Cu1+ 2 a 0. 0. 0. 0.251 0.99
Cu2 Cu1+ 4 g 0. 0.25 0. 0.032 0.44
V1 V4+ 4 i 0.2198 0. 0.3364 0.008 1.
V2 V4+ 4 i 0.5176 0. 0.3315 0.007 1.
O1 O2- 4 i 0.3926 0. 0.3904 0.012 1.
O2 O2- 4 i 0.1781 0. 0.1345 0.014 1.
O3 O2- 4 i 0.2959 0. 0.6134 0.01 1.
O4 O2- 4 i 0.0598 0. 0.358 0.009 1.
O5 O2- 4 i 0.4551 0. 0.1337 0.016 1.
#End of TTdata_173880-ICSD