
#(C) 2022 by FIZ Karlsruhe - Leibniz Institute for Information Infrastructure.  All rights reserved.
data_68647-ICSD
_database_code_ICSD 68647
_audit_creation_date 1991-07-10
_chemical_name_common
'Bismuth vanadate tetraoxobismuthate(III) oxide (24/1/1/32)'
_chemical_formula_structural 'Bi24 (V O4) (Bi O4) O32'
_chemical_formula_sum 'Bi25 O40 V1'
_chemical_name_structure_type Sillenite#Bi12SiO20
_exptl_crystal_density_diffrn 9.2
_citation_title 'Crystallochemistry of gallium and vanadium sillenites'
loop_
_citation_id
_citation_journal_full
_citation_year
_citation_journal_volume
_citation_page_first
_citation_page_last
_citation_journal_id_ASTM
primary 'Izvestiya Akademii Nauk SSSR, Neorganicheskie Materialy' 1989 25 1715
1718 IVNMAW
loop_
_citation_author_citation_id
_citation_author_name
primary 'Yudin, A.N.'
primary 'Pobedimskaya, E.A.'
primary 'Terent'eva, L.E. (Terenteva, L.E.)'
primary 'Petrova, I.V.'
primary 'Kaplunnik, L.N.'
primary 'Malakhova, G.V.'
_cell_length_a 10.222
_cell_length_b 10.222
_cell_length_c 10.222
_cell_angle_alpha 90.
_cell_angle_beta 90.
_cell_angle_gamma 90.
_cell_volume 1068.09
_cell_formula_units_Z 1
_space_group_name_H-M_alt 'I 2 3'
_space_group_IT_number 197
loop_
_space_group_symop_id
_space_group_symop_operation_xyz
1 '-z, -x, y'
2 '-y, -z, x'
3 '-x, -y, z'
4 '-z, x, -y'
5 '-y, z, -x'
6 '-x, y, -z'
7 'z, -x, -y'
8 'y, -z, -x'
9 'x, -y, -z'
10 'z, x, y'
11 'y, z, x'
12 'x, y, z'
13 '-z+1/2, -x+1/2, y+1/2'
14 '-y+1/2, -z+1/2, x+1/2'
15 '-x+1/2, -y+1/2, z+1/2'
16 '-z+1/2, x+1/2, -y+1/2'
17 '-y+1/2, z+1/2, -x+1/2'
18 '-x+1/2, y+1/2, -z+1/2'
19 'z+1/2, -x+1/2, -y+1/2'
20 'y+1/2, -z+1/2, -x+1/2'
21 'x+1/2, -y+1/2, -z+1/2'
22 'z+1/2, x+1/2, y+1/2'
23 'y+1/2, z+1/2, x+1/2'
24 'x+1/2, y+1/2, z+1/2'
loop_
_atom_type_symbol
_atom_type_oxidation_number
Bi3+ 3
V5+ 5
Bi3+ 3
O2- -2
loop_
_atom_site_label
_atom_site_type_symbol
_atom_site_symmetry_multiplicity
_atom_site_Wyckoff_symbol
_atom_site_fract_x
_atom_site_fract_y
_atom_site_fract_z
_atom_site_B_iso_or_equiv
_atom_site_occupancy
Bi1 Bi3+ 24 f 0.1774 0.3225 0.4764 0.61 1.
V1 V5+ 2 a 0. 0. 0. 0.6 0.5
Bi2 Bi3+ 2 a 0. 0. 0. 0.6 0.5
O1 O2- 24 f 0.006 0.257 0.37 0.8 1.
O2 O2- 8 c 0.299 0.299 0.299 0.9 1.
O3 O2- 8 c 0.098 0.098 0.098 0.4 0.5
O4 O2- 8 c 0.121 0.121 0.121 0.7 0.5
#End of TTdata_68647-ICSD