
#(C) 2022 by FIZ Karlsruhe - Leibniz Institute for Information Infrastructure.  All rights reserved.
data_418368-ICSD
_database_code_ICSD 418368
_audit_creation_date 2009-02-01
_audit_update_record 2013-08-01
_chemical_name_common 'Bismuth vanadium oxide (23/4/44)'
_chemical_formula_structural 'Bi23 V4 O44'
_chemical_formula_sum 'Bi23 O44 V4'
_chemical_name_structure_type (MBi)23O28(VO4)4
_exptl_crystal_density_diffrn 8.35
_diffrn_ambient_temperature 293.
_citation_title

;
(M Bi)46 V8 O(y)-family type (M = Pb, Sr, Ca, Cd, Na0.5 Bi0.5): syntheses,
crystal structures and conductivity properties
;
loop_
_citation_id
_citation_journal_full
_citation_year
_citation_journal_volume
_citation_page_first
_citation_page_last
_citation_journal_id_ASTM
primary 'Solid State Sciences' 2008 10 1074 1082 SSSCFJ
loop_
_citation_author_citation_id
_citation_author_name
primary 'Labidi, O.'
primary 'Drache, M.'
primary 'Roussel, P.'
primary 'Wignacourt, J.P.'
_cell_length_a 11.6935
_cell_length_b 12.1371
_cell_length_c 16.0191
_cell_angle_alpha 90.
_cell_angle_beta 90.
_cell_angle_gamma 90.
_cell_volume 2273.51
_cell_formula_units_Z 2
_space_group_name_H-M_alt 'I m m m'
_space_group_IT_number 71
loop_
_space_group_symop_id
_space_group_symop_operation_xyz
1 'x, y, -z'
2 'x, -y, z'
3 '-x, y, z'
4 '-x, -y, -z'
5 '-x, -y, z'
6 '-x, y, -z'
7 'x, -y, -z'
8 'x, y, z'
9 'x+1/2, y+1/2, -z+1/2'
10 'x+1/2, -y+1/2, z+1/2'
11 '-x+1/2, y+1/2, z+1/2'
12 '-x+1/2, -y+1/2, -z+1/2'
13 '-x+1/2, -y+1/2, z+1/2'
14 '-x+1/2, y+1/2, -z+1/2'
15 'x+1/2, -y+1/2, -z+1/2'
16 'x+1/2, y+1/2, z+1/2'
loop_
_atom_type_symbol
_atom_type_oxidation_number
Bi3+ 3
O2- -2
V5+ 5
O2- -2
V4+ 4.5
O2- -2
loop_
_atom_site_label
_atom_site_type_symbol
_atom_site_symmetry_multiplicity
_atom_site_Wyckoff_symbol
_atom_site_fract_x
_atom_site_fract_y
_atom_site_fract_z
_atom_site_U_iso_or_equiv
_atom_site_occupancy
Bi1 Bi3+ 16 o 0.17004 0.15865 0.1745 0.02365 1.
Bi2 Bi3+ 8 m 0.33787 0. 0.34241 0.01945 1.
Bi3 Bi3+ 8 l 0. 0.34514 0.33368 0.0495 1.
Bi4 Bi3+ 8 n 0.33906 0.3135 0. 0.02226 1.
Bi5 Bi3+ 4 e 0.32015 0. 0. 0.039 1.
Bi6 Bi3+ 2 a 0. 0. 0. 0.0343 1.
O1 O2- 16 o 0.3073 0.1344 0.2608 0.069 1.
O2 O2- 16 o 0.3116 0.1821 0.0911 0.0303 1.
O3 O2- 8 m 0.162 0. 0.0902 0.086 1.
O4 O2- 8 l 0. 0.2669 0.4235 0.088 1.
O5 O2- 4 j 0.5 0. 0.2798 0.038 1.
O6 O2- 4 j 0.5 0. 0.0953 0.043 1.
V1 V5+ 4 g 0. 0.3035 0. 0.0236 1.
O7 O2- 16 o 0.1228 0.3306 0.0502 0.068 0.5
O8 O2- 8 l 0. 0.358 0.0953 0.17 0.5
O9 O2- 8 n 0.087 0.414 0. 0.19 0.5
V2 V4+ 4 i 0. 0. 0.34229 0.0196 1.
O10 O2- 16 o 0.1092 0.085 0.3484 0.11 0.5
O11 O2- 8 m 0.13 0. 0.381 0.16 0.5
O12 O2- 4 i 0. 0. 0.2415 0.159 1.
loop_
_atom_site_aniso_label
_atom_site_aniso_type_symbol
_atom_site_aniso_U_11
_atom_site_aniso_U_22
_atom_site_aniso_U_33
_atom_site_aniso_U_12
_atom_site_aniso_U_13
_atom_site_aniso_U_23
Bi1 Bi3+ 0.0234 0.02039 0.0272 0.00022 -0.00642 0.00632
Bi2 Bi3+ 0.022 0.0216 0.0148 0. 0. 0.00178
Bi3 Bi3+ 0.0472 0.0476 0.0537 0. -0.0298 0.
Bi4 Bi3+ 0.0161 0.0199 0.0308 0.00244 0. 0.
Bi5 Bi3+ 0.0466 0.0264 0.044 0. 0. 0.
Bi6 Bi3+ 0.0619 0.016 0.0251 0. 0. 0.
V1 V5+ 0.0274 0.0127 0.0308 0. 0. 0.
V2 V4+ 0.0198 0.0237 0.0153 0. 0. 0.
#End of TTdata_418368-ICSD