
#(C) 2022 by FIZ Karlsruhe - Leibniz Institute for Information Infrastructure.  All rights reserved.
data_27184-ICSD
_database_code_ICSD 27184
_audit_creation_date 1982-12-31
_audit_update_record 1998-06-26
_chemical_name_common 'Tricopper bis(vanadate(V))'
_chemical_formula_structural 'Cu3 (V O4)2'
_chemical_formula_sum 'Cu3 O8 V2'
_chemical_name_structure_type Cu3(PO4)2(P1-)
_chemical_name_mineral Mcbirneyite
_exptl_crystal_density_diffrn 4.48
_citation_title

;
Structure de la Variete Ordinaire, Triclinique, de l'orthovanadate de
Cuivre(II), Cu3 (V O4)2
;
loop_
_citation_id
_citation_journal_full
_citation_year
_citation_journal_volume
_citation_page_first
_citation_page_last
_citation_journal_id_ASTM
primary

;
Acta Crystallographica, Section B: Structural Crystallography and Crystal
Chemistry
; 1982 38 1546 1548 ACBCAR
loop_
_citation_author_citation_id
_citation_author_name
primary 'Coing-Boyat, J.'
_cell_length_a 5.196
_cell_length_b 5.355
_cell_length_c 6.505
_cell_angle_alpha 69.22
_cell_angle_beta 88.69
_cell_angle_gamma 68.08
_cell_volume 155.73
_cell_formula_units_Z 1
_space_group_name_H-M_alt 'P -1'
_space_group_IT_number 2
loop_
_space_group_symop_id
_space_group_symop_operation_xyz
1 '-x, -y, -z'
2 'x, y, z'
loop_
_atom_type_symbol
_atom_type_oxidation_number
Cu2+ 2
V5+ 5
O2- -2
loop_
_atom_site_label
_atom_site_type_symbol
_atom_site_symmetry_multiplicity
_atom_site_Wyckoff_symbol
_atom_site_fract_x
_atom_site_fract_y
_atom_site_fract_z
_atom_site_B_iso_or_equiv
_atom_site_occupancy
Cu1 Cu2+ 1 a 0. 0. 0. . 1.
Cu2 Cu2+ 2 i 0.2859 0.21618 0.31047 . 1.
V1 V5+ 2 i 0.6288 0.6462 0.21733 . 1.
O1 O2- 2 i 0.1399 0.687 0.6592 . 1.
O2 O2- 2 i 0.31 0.6289 0.1652 . 1.
O3 O2- 2 i 0.2365 0.1929 0.0267 . 1.
O4 O2- 2 i 0.386 0.1686 0.607 . 1.
loop_
_atom_site_aniso_label
_atom_site_aniso_type_symbol
_atom_site_aniso_beta_11
_atom_site_aniso_beta_22
_atom_site_aniso_beta_33
_atom_site_aniso_beta_12
_atom_site_aniso_beta_13
_atom_site_aniso_beta_23
Cu1 Cu2+ 0.00389 0.005 0.0046 -0.00395 -0.00106 -0.0023
Cu2 Cu2+ 0.00952 0.00977 0.00333 0.00138 -0.00303 -0.00741
V1 V5+ 0.0039 0.00578 0.00231 -0.00495 0.00138 -0.00339
O1 O2- 0.00658 0.00908 0.0061 -0.0028 0.00188 -0.0029
O2 O2- 0.00626 0.00603 0.00648 -0.00516 -0.00135 -0.00255
O3 O2- 0.00741 0.00979 0.003 -0.0101 0.00337 -0.00491
O4 O2- 0.01008 0.0102 0.00394 -0.0005 -0.0011 -0.00765
#End of TTdata_27184-ICSD