
#(C) 2022 by FIZ Karlsruhe - Leibniz Institute for Information Infrastructure.  All rights reserved.
data_239092-ICSD
_database_code_ICSD 239092
_audit_creation_date 2016-08-01
_chemical_name_common 'Bismuth vanadate - gamma'
_chemical_formula_structural 'Bi3.6 V2 O10'
_chemical_formula_sum 'Bi3.6 O10 V2'
_chemical_name_structure_type (Bi,V,Sb)3O5
_exptl_crystal_density_diffrn 7.25
_citation_title

;
Interlayer communication in aurivillius vanadate to enable defect structures
and charge ordering
;
loop_
_citation_id
_citation_journal_full
_citation_year
_citation_journal_volume
_citation_page_first
_citation_page_last
_citation_journal_id_ASTM
primary 'Inorganic Chemistry' 2015 54 10925 10933 INOCAJ
loop_
_citation_author_citation_id
_citation_author_name
primary 'Zhang, Yaoqing'
primary 'Yamamoto, Takafumi'
primary 'Green, Mark A.'
primary 'Kageyama, Hiroshi'
primary 'Ueda, Yutaka'
_cell_length_a 3.8803
_cell_length_b 3.8803
_cell_length_c 15.4201
_cell_angle_alpha 90.
_cell_angle_beta 90.
_cell_angle_gamma 90.
_cell_volume 232.18
_cell_formula_units_Z 1
_space_group_name_H-M_alt 'I 4/m m m'
_space_group_IT_number 139
loop_
_space_group_symop_id
_space_group_symop_operation_xyz
1 'y, x, -z'
2 '-y, -x, -z'
3 '-y, x, -z'
4 'y, -x, -z'
5 '-x, y, -z'
6 'x, -y, -z'
7 'x, y, -z'
8 '-x, -y, -z'
9 '-y, -x, z'
10 'y, x, z'
11 'y, -x, z'
12 '-y, x, z'
13 'x, -y, z'
14 '-x, y, z'
15 '-x, -y, z'
16 'x, y, z'
17 'y+1/2, x+1/2, -z+1/2'
18 '-y+1/2, -x+1/2, -z+1/2'
19 '-y+1/2, x+1/2, -z+1/2'
20 'y+1/2, -x+1/2, -z+1/2'
21 '-x+1/2, y+1/2, -z+1/2'
22 'x+1/2, -y+1/2, -z+1/2'
23 'x+1/2, y+1/2, -z+1/2'
24 '-x+1/2, -y+1/2, -z+1/2'
25 '-y+1/2, -x+1/2, z+1/2'
26 'y+1/2, x+1/2, z+1/2'
27 'y+1/2, -x+1/2, z+1/2'
28 '-y+1/2, x+1/2, z+1/2'
29 'x+1/2, -y+1/2, z+1/2'
30 '-x+1/2, y+1/2, z+1/2'
31 '-x+1/2, -y+1/2, z+1/2'
32 'x+1/2, y+1/2, z+1/2'
loop_
_atom_type_symbol
_atom_type_oxidation_number
Bi3+ 3
V4+ 4.6
O2- -2
loop_
_atom_site_label
_atom_site_type_symbol
_atom_site_symmetry_multiplicity
_atom_site_Wyckoff_symbol
_atom_site_fract_x
_atom_site_fract_y
_atom_site_fract_z
_atom_site_B_iso_or_equiv
_atom_site_occupancy
Bi1 Bi3+ 4 e 0. 0. 0.33157 1.74 0.9
V1 V4+ 8 i 0.088 0. 0. 1.6 0.25
O1 O2- 4 d 0. 0.5 0.25 . 0.93
O2 O2- 4 c 0. 0.5 0. . 0.72
O3 O2- 4 e 0. 0. 0.1011 . 0.85
loop_
_atom_site_aniso_label
_atom_site_aniso_type_symbol
_atom_site_aniso_beta_11
_atom_site_aniso_beta_22
_atom_site_aniso_beta_33
_atom_site_aniso_beta_12
_atom_site_aniso_beta_13
_atom_site_aniso_beta_23
O1 O2- 0.023 0.023 0.0022 0. 0. 0.
O2 O2- 0.057 0.099 0.02 0. 0. 0.
O3 O2- 0.29 0.29 0.0033 0. 0. 0.
#End of TTdata_239092-ICSD