
#(C) 2022 by FIZ Karlsruhe - Leibniz Institute for Information Infrastructure.  All rights reserved.
data_28151-ICSD
_database_code_ICSD 28151
_audit_creation_date 1980-01-01
_chemical_name_common 'Copper divanadium oxide'
_chemical_formula_structural 'Cu V2 O6'
_chemical_formula_sum 'Cu1 O6 V2'
_exptl_crystal_density_diffrn 4.41
_citation_title 'Refinement of the structure of CuV2O6'
loop_
_citation_id
_citation_journal_full
_citation_year
_citation_journal_volume
_citation_page_first
_citation_page_last
_citation_journal_id_ASTM
primary

;
Acta Crystallographica, Section B: Structural Crystallography and Crystal
Chemistry
; 1973 29 1743 1745 ACBCAR
loop_
_citation_author_citation_id
_citation_author_name
primary 'Calvo, C.'
primary 'Manolescu, D.'
_cell_length_a 9.168
_cell_length_b 3.543
_cell_length_c 6.478
_cell_angle_alpha 92.25
_cell_angle_beta 110.34
_cell_angle_gamma 91.88
_cell_volume 196.9
_cell_formula_units_Z 2
_space_group_name_H-M_alt 'C -1'
_space_group_IT_number 2
loop_
_space_group_symop_id
_space_group_symop_operation_xyz
1 '-x, -y, -z'
2 'x, y, z'
3 '-x+1/2, -y+1/2, -z'
4 'x+1/2, y+1/2, z'
loop_
_atom_type_symbol
_atom_type_oxidation_number
Cu2+ 2
V5+ 5
O2- -2
loop_
_atom_site_label
_atom_site_type_symbol
_atom_site_symmetry_multiplicity
_atom_site_Wyckoff_symbol
_atom_site_fract_x
_atom_site_fract_y
_atom_site_fract_z
_atom_site_B_iso_or_equiv
_atom_site_occupancy
Cu1 Cu2+ 2 a 0. 0. 0. . 1.
V1 V5+ 4 i 0.19279 0.01267 0.65463 . 1.
O1 O2- 4 i 0.0304 0.0027 0.7239 . 1.
O2 O2- 4 i 0.3426 0.0482 0.8896 . 1.
O3 O2- 4 i 0.3067 0.9972 0.4316 . 1.
loop_
_atom_site_aniso_label
_atom_site_aniso_type_symbol
_atom_site_aniso_U_11
_atom_site_aniso_U_22
_atom_site_aniso_U_33
_atom_site_aniso_U_12
_atom_site_aniso_U_13
_atom_site_aniso_U_23
Cu1 Cu2+ 0.0097 0.0103 0.0067 0. 0.006 0.
V1 V5+ 0.0064 0.0042 0.0051 0.0015 0.0046 0.0005
O1 O2- 0.0095 0.0095 0.0097 0. 0.0079 -0.0006
O2 O2- 0.0103 0.0114 0.0079 0.0007 0.0038 0.0007
O3 O2- 0.0094 0.0046 0.0091 0.0021 0.0067 0.0011
#End of TTdata_28151-ICSD