
#(C) 2022 by FIZ Karlsruhe - Leibniz Institute for Information Infrastructure.  All rights reserved.
data_62764-ICSD
_database_code_ICSD 62764
_audit_creation_date 1988-07-15
_audit_update_record 2006-10-01
_chemical_name_common 'Copper oxide (8/1)'
_chemical_formula_structural 'Cu8 O'
_chemical_formula_sum 'Cu8 O1'
_exptl_crystal_density_diffrn 5.66
_citation_title

;
Electron-microscopic study of the structure of metastable oxides formed in the
initial stage of copper oxidation. II. Cu8 O.
;
loop_
_citation_id
_citation_journal_full
_citation_year
_citation_journal_volume
_citation_page_first
_citation_page_last
_citation_journal_id_ASTM
primary 'Acta Crystallographica, Section B: Structural Science' 1984 40 560 566
ASBSDK
loop_
_citation_author_citation_id
_citation_author_name
primary 'Guan, R.'
primary 'Hashimoto, H.'
primary 'Kuo, K.H.'
_cell_length_a 6.02
_cell_length_b 5.47
_cell_length_c 9.34
_cell_angle_alpha 90.
_cell_angle_beta 90.
_cell_angle_gamma 90.
_cell_volume 307.56
_cell_formula_units_Z 2
_space_group_name_H-M_alt 'A m m 2'
_space_group_IT_number 38
loop_
_space_group_symop_id
_space_group_symop_operation_xyz
1 'x, -y, z'
2 '-x, y, z'
3 '-x, -y, z'
4 'x, y, z'
5 'x, -y+1/2, z+1/2'
6 '-x, y+1/2, z+1/2'
7 '-x, -y+1/2, z+1/2'
8 'x, y+1/2, z+1/2'
loop_
_atom_type_symbol
_atom_type_oxidation_number
Cu0+ 0
O0+ 0
loop_
_atom_site_label
_atom_site_type_symbol
_atom_site_symmetry_multiplicity
_atom_site_Wyckoff_symbol
_atom_site_fract_x
_atom_site_fract_y
_atom_site_fract_z
_atom_site_B_iso_or_equiv
_atom_site_occupancy
Cu1 Cu0+ 4 e 0.5 0.25 0.375 . 1.
Cu2 Cu0+ 4 d 0. 0.25 0.375 . 1.
Cu3 Cu0+ 4 c 0.25 0. 0.125 . 1.
Cu4 Cu0+ 4 c 0.25 0. 0.625 . 1.
O1 O0+ 2 a 0. 0. 0. . 1.
#End of TTdata_62764-ICSD