
#(C) 2022 by FIZ Karlsruhe - Leibniz Institute for Information Infrastructure.  All rights reserved.
data_172529-ICSD
_database_code_ICSD 172529
_audit_creation_date 2007-04-01
_chemical_name_common 'Bismuth oxide - epsilon'
_chemical_formula_structural 'Bi2 O3'
_chemical_formula_sum 'Bi2 O3'
_chemical_name_structure_type Sb2O3
_exptl_crystal_density_diffrn 8.78
_citation_title 'New epsilon-Bi2 O3 metastable polymorph'
loop_
_citation_id
_citation_journal_full
_citation_year
_citation_journal_volume
_citation_page_first
_citation_page_last
_citation_journal_id_ASTM
primary 'Inorganic Chemistry' 2006 45 4886 4888 INOCAJ
loop_
_citation_author_citation_id
_citation_author_name
primary 'Cornel, N.'
primary 'Tancret, N.'
primary 'Abraham, F.'
primary 'Mentre, O.'
_cell_length_a 4.9555
_cell_length_b 12.7299
_cell_length_c 5.5854
_cell_angle_alpha 90.
_cell_angle_beta 90.
_cell_angle_gamma 90.
_cell_volume 352.34
_cell_formula_units_Z 4
_space_group_name_H-M_alt 'P c c n'
_space_group_IT_number 56
loop_
_space_group_symop_id
_space_group_symop_operation_xyz
1 'x, -y+1/2, z+1/2'
2 '-x+1/2, y, z+1/2'
3 'x+1/2, y+1/2, -z'
4 '-x, -y, -z'
5 '-x, y+1/2, -z+1/2'
6 'x+1/2, -y, -z+1/2'
7 '-x+1/2, -y+1/2, z'
8 'x, y, z'
loop_
_atom_type_symbol
_atom_type_oxidation_number
Bi3+ 3
O2- -2
loop_
_atom_site_label
_atom_site_type_symbol
_atom_site_symmetry_multiplicity
_atom_site_Wyckoff_symbol
_atom_site_fract_x
_atom_site_fract_y
_atom_site_fract_z
_atom_site_U_iso_or_equiv
_atom_site_occupancy
Bi1 Bi3+ 8 e 0.03511 0.37342 0.31723 0.01203 1.
O1 O2- 8 e 0.1242 0.0587 0.1662 0.0139 1.
O2 O2- 4 c 0.25 0.25 0.0051 0.0174 1.
loop_
_atom_site_aniso_label
_atom_site_aniso_type_symbol
_atom_site_aniso_U_11
_atom_site_aniso_U_22
_atom_site_aniso_U_33
_atom_site_aniso_U_12
_atom_site_aniso_U_13
_atom_site_aniso_U_23
Bi1 Bi3+ 0.01208 0.01083 0.01317 -0.0009 -0.00216 0.00067
O1 O2- 0.0156 0.0107 0.0155 0.004 -0.0039 -0.0026
O2 O2- 0.031 0.008 0.0129 0. 0.0074 0.
#End of TTdata_172529-ICSD