
#(C) 2022 by FIZ Karlsruhe - Leibniz Institute for Information Infrastructure.  All rights reserved.
data_16779-ICSD
_database_code_ICSD 16779
_audit_creation_date 1980-01-01
_chemical_name_common 'Vanadium oxide (12/26)'
_chemical_formula_structural 'V12 O26'
_chemical_formula_sum 'O26 V12'
_chemical_name_structure_type V6O13
_exptl_crystal_density_diffrn 3.93
_citation_title

;
Phasenuntersuchungen im System Vanadin-Sauerstoff und die Krystallstruktur von
V12O26
;
loop_
_citation_id
_citation_journal_full
_citation_year
_citation_journal_volume
_citation_page_first
_citation_page_last
_citation_journal_id_ASTM
primary 'Helvetica Chimica Acta' 1948 31 8 21 HCACAV
loop_
_citation_author_citation_id
_citation_author_name
primary 'Aebi, F.'
_cell_length_a 11.9
_cell_length_b 3.671
_cell_length_c 10.122
_cell_angle_alpha 90.
_cell_angle_beta 100.87
_cell_angle_gamma 90.
_cell_volume 434.24
_cell_formula_units_Z 1
_space_group_name_H-M_alt 'C 1 2/m 1'
_space_group_IT_number 12
loop_
_space_group_symop_id
_space_group_symop_operation_xyz
1 '-x, y, -z'
2 '-x, -y, -z'
3 'x, -y, z'
4 'x, y, z'
5 '-x+1/2, y+1/2, -z'
6 '-x+1/2, -y+1/2, -z'
7 'x+1/2, -y+1/2, z'
8 'x+1/2, y+1/2, z'
loop_
_atom_type_symbol
_atom_type_oxidation_number
V4+ 4.333
O2- -2
loop_
_atom_site_label
_atom_site_type_symbol
_atom_site_symmetry_multiplicity
_atom_site_Wyckoff_symbol
_atom_site_fract_x
_atom_site_fract_y
_atom_site_fract_z
_atom_site_B_iso_or_equiv
_atom_site_occupancy
V1 V4+ 4 i 0.151 0. 0. . 1.
V2 V4+ 4 i 0.091 0. 0.631 . 1.
V3 V4+ 4 i 0.219 0. 0.369 . 1.
O1 O2- 2 a 0. 0. 0. . 1.
O2 O2- 4 i 0.33 0. 0. . 1.
O3 O2- 4 i 0.12 0. 0.82 . 1.
O4 O2- 4 i 0.18 0. 0.18 . 1.
O5 O2- 4 i 0.29 0. 0.62 . 1.
O6 O2- 4 i 0.39 0. 0.38 . 1.
O7 O2- 4 i 0.07 0. 0.4 . 1.
#End of TTdata_16779-ICSD