
#(C) 2022 by FIZ Karlsruhe - Leibniz Institute for Information Infrastructure.  All rights reserved.
data_190461-ICSD
_database_code_ICSD 190461
_audit_creation_date 2014-08-01
_audit_update_record 2018-08-01
_chemical_name_common 'Dibismuth trioxide'
_chemical_formula_structural 'Bi2 O3'
_chemical_formula_sum 'Bi2 O3'
_chemical_name_structure_type Bi2O3
_exptl_crystal_density_diffrn 9.37
_diffrn_ambient_temperature 293.
_diffrn_ambient_pressure 100000.
_citation_title 'Structural study of alpha - Bi2 O3 under pressure'
loop_
_citation_id
_citation_journal_full
_citation_year
_citation_journal_volume
_citation_page_first
_citation_page_last
_citation_journal_id_ASTM
primary 'Journal of Physics: Condensed Matter' 2013 25 1 12 JCOMEL
loop_
_citation_author_citation_id
_citation_author_name
primary 'Pereira, A.L.J.'
primary 'Errandonea, D.'
primary 'Beltran, A.'
primary 'Gracia, L.'
primary 'Gomis, O.'
primary 'Sans, J.A.'
primary 'Garcia-Domene, B.'
primary 'Miquel-Veyrat, A.'
primary 'Manjon, F.J.'
primary 'Munoz, A.'
primary 'Popescu, C.'
_cell_length_a 5.849
_cell_length_b 8.164
_cell_length_c 7.504
_cell_angle_alpha 90.
_cell_angle_beta 112.88
_cell_angle_gamma 90.
_cell_volume 330.13
_cell_formula_units_Z 4
_space_group_name_H-M_alt 'P 1 21/c 1'
_space_group_IT_number 14
loop_
_space_group_symop_id
_space_group_symop_operation_xyz
1 'x, -y+1/2, z+1/2'
2 '-x, -y, -z'
3 '-x, y+1/2, -z+1/2'
4 'x, y, z'
loop_
_atom_type_symbol
_atom_type_oxidation_number
Bi3+ 3
O2- -2
loop_
_atom_site_label
_atom_site_type_symbol
_atom_site_symmetry_multiplicity
_atom_site_Wyckoff_symbol
_atom_site_fract_x
_atom_site_fract_y
_atom_site_fract_z
_atom_site_B_iso_or_equiv
_atom_site_occupancy
Bi1 Bi3+ 4 e 0.5294 0.3037 0.3597 . 1.
Bi2 Bi3+ 4 e 0.0365 0.055 0.2772 . 1.
O1 O2- 4 e 0.777 0.304 0.207 . 1.
O2 O2- 4 e 0.235 0.452 0.127 . 1.
O3 O2- 4 e 0.269 0.028 0.011 . 1.
#End of TTdata_190461-ICSD