
#(C) 2022 by FIZ Karlsruhe - Leibniz Institute for Information Infrastructure.  All rights reserved.
data_238710-ICSD
_database_code_ICSD 238710
_audit_creation_date 2016-02-01
_chemical_name_common 'Bismuth copper(I) vanadium(V) oxide (6.5/0.5/2/15.2)'
_chemical_formula_structural 'Bi6 (Bi0.5 Cu0.5) V2 O15.2'
_chemical_formula_sum 'Bi6.5 Cu0.5 O15.2 V2'
_exptl_crystal_density_diffrn 8.54
_citation_title 'Synthesis and crystal structure of Bi6 (Bi0.5 Cu0.5) V2 O15+y'
loop_
_citation_id
_citation_journal_full
_citation_year
_citation_journal_volume
_citation_page_first
_citation_page_last
_citation_journal_id_ASTM
primary 'Journal of Solid State Chemistry' 2015 230 369 373 JSSCBI
loop_
_citation_author_citation_id
_citation_author_name
primary 'Gupta, Akanksha'
primary 'Uma, S.'
_cell_length_a 14.8416
_cell_length_b 5.4513
_cell_length_c 11.055
_cell_angle_alpha 90.
_cell_angle_beta 131.012
_cell_angle_gamma 90.
_cell_volume 674.9
_cell_formula_units_Z 2
_space_group_name_H-M_alt 'C 1 2 1'
_space_group_IT_number 5
loop_
_space_group_symop_id
_space_group_symop_operation_xyz
1 '-x, y, -z'
2 'x, y, z'
3 '-x+1/2, y+1/2, -z'
4 'x+1/2, y+1/2, z'
loop_
_atom_type_symbol
_atom_type_oxidation_number
Cu1+ 1
Bi3+ 3
V5+ 5
O2- -2
loop_
_atom_site_label
_atom_site_type_symbol
_atom_site_symmetry_multiplicity
_atom_site_Wyckoff_symbol
_atom_site_fract_x
_atom_site_fract_y
_atom_site_fract_z
_atom_site_U_iso_or_equiv
_atom_site_occupancy
Cu1 Cu1+ 2 a 0. 0.1296 0. 0.0272 0.5
Bi1 Bi3+ 2 a 0. 0.1296 0. 0.0272 0.5
Bi2 Bi3+ 4 c 0.33717 0.1415 0.3522 0.0194 1.
Bi3 Bi3+ 4 c 0.3383 0.223 0.0076 0.0118 0.5
Bi4 Bi3+ 4 c 0.3331 0.0976 0.0047 0.0277 0.5
Bi5 Bi3+ 4 c 0.00644 0.1364 0.67563 0.0163 1.
V1 V5+ 4 c 0.1548 0.609 0.3012 0.0338 1.
O1 O2- 2 b 0. 0.881 0.5 0.022 1.
O2 O2- 2 b 0. 0.383 0.5 0.027 1.
O3 O2- 4 c 0.173 0.405 0.8253 0.019 1.
O4 O2- 4 c 0.333 0.403 0.182 0.028 1.
O5 O2- 4 c 0.5741 0.111 0.337 0.035 1.
O6 O2- 4 c 0.218 0.102 0.5715 0.05 1.
O7 O2- 4 c 0.126 0.396 0.198 0.045 0.82
O8 O2- 4 c 0.403 0.626 0.041 0.049 0.78
O9 O2- 4 c 0.618 0.347 0.172 0.028 1.
loop_
_atom_site_aniso_label
_atom_site_aniso_type_symbol
_atom_site_aniso_U_11
_atom_site_aniso_U_22
_atom_site_aniso_U_33
_atom_site_aniso_U_12
_atom_site_aniso_U_13
_atom_site_aniso_U_23
Cu1 Cu1+ 0.0208 0.019 0.0471 0. 0.0261 0.
Bi1 Bi3+ 0.0208 0.019 0.0471 0. 0.0261 0.
Bi2 Bi3+ 0.0011 0.0346 0.0215 0.0023 -0.0035 0.0013
Bi3 Bi3+ 0.002 0.0251 0.0103 0.0037 0.0094 0.0021
Bi4 Bi3+ 0.0168 0.031 0.0374 -0.0175 0.0127 -0.0199
Bi5 Bi3+ 0.007 0.0261 0.0139 0.002 -0.0067 -0.0027
V1 V5+ 0.029 0.027 0.042 0.017 -0.01 -0.023
#End of TTdata_238710-ICSD