
#(C) 2022 by FIZ Karlsruhe - Leibniz Institute for Information Infrastructure.  All rights reserved.
data_158375-ICSD
_database_code_ICSD 158375
_audit_creation_date 2008-02-01
_chemical_name_common 'Dicopper divanadate - beta'
_chemical_formula_structural 'Cu2 (V2 O7)'
_chemical_formula_sum 'Cu2 O7 V2'
_chemical_name_structure_type Cu2P2O7
_chemical_name_mineral Ziesite
_exptl_crystal_density_diffrn 3.87
_citation_title

;
The crystal structure of ziesite, beta-(Cu2 V2 O7), a thortveitite-type
structure with a non-linear X-O-X inter-tetrahedral bond
;
loop_
_citation_id
_citation_journal_full
_citation_year
_citation_journal_volume
_citation_page_first
_citation_page_last
_citation_journal_id_ASTM
primary 'Neues Jahrbuch fuer Mineralogie, Monatshefte' 1989 1989 41 47 NJMMAW
loop_
_citation_author_citation_id
_citation_author_name
primary 'Hughes, J.M.'
primary 'Brown, M.A.'
_cell_length_a 7.689
_cell_length_b 8.0289
_cell_length_c 10.1065
_cell_angle_alpha 90.
_cell_angle_beta 110.252
_cell_angle_gamma 90.
_cell_volume 585.35
_cell_formula_units_Z 4
_space_group_name_H-M_alt 'C 1 2/c 1'
_space_group_IT_number 15
loop_
_space_group_symop_id
_space_group_symop_operation_xyz
1 'x, -y, z+1/2'
2 '-x, -y, -z'
3 '-x, y, -z+1/2'
4 'x, y, z'
5 'x+1/2, -y+1/2, z+1/2'
6 '-x+1/2, -y+1/2, -z'
7 '-x+1/2, y+1/2, -z+1/2'
8 'x+1/2, y+1/2, z'
loop_
_atom_type_symbol
_atom_type_oxidation_number
Cu2+ 2
V5+ 5
O2- -2
loop_
_atom_site_label
_atom_site_type_symbol
_atom_site_symmetry_multiplicity
_atom_site_Wyckoff_symbol
_atom_site_fract_x
_atom_site_fract_y
_atom_site_fract_z
_atom_site_B_iso_or_equiv
_atom_site_occupancy
Cu1 Cu2+ 8 f 0.30976 0.07364 0.01407 0.862 1.
V1 V5+ 8 f 0.22457 0.22252 0.28724 0.71 1.
O1 O2- 4 e 0. 0.1367 0.25 1.79 1.
O2 O2- 8 f 0.2353 0.403 0.367 1.73 1.
O3 O2- 8 f 0.3768 0.0888 0.3965 0.98 1.
O4 O2- 8 f 0.2648 0.2517 0.1292 1.11 1.
loop_
_atom_site_aniso_label
_atom_site_aniso_type_symbol
_atom_site_aniso_U_11
_atom_site_aniso_U_22
_atom_site_aniso_U_33
_atom_site_aniso_U_12
_atom_site_aniso_U_13
_atom_site_aniso_U_23
Cu1 Cu2+ 0.0071 0.0023 0.0018 0.00393 0.0025 0.0013
V1 V5+ 0.0048 0.00261 0.00144 -0.001 0.0024 -0.0003
O1 O2- 0.0047 0.0086 0.006 0. 0.0038 0.
O2 O2- 0.0156 0.004 0.0035 -0.0019 0.009 0.0008
O3 O2- 0.0052 0.0038 0.0023 0.0004 0.0021 -0.0017
O4 O2- 0.0093 0.0033 0.002 -0.0027 0.0048 -0.0014
#End of TTdata_158375-ICSD