
#(C) 2022 by FIZ Karlsruhe - Leibniz Institute for Information Infrastructure.  All rights reserved.
data_174441-ICSD
_database_code_ICSD 174441
_audit_creation_date 2011-02-01
_chemical_name_common 'Tetravanadium(IV,V) nonaoxide'
_chemical_formula_structural 'V4 O9'
_chemical_formula_sum 'O9 V4'
_exptl_crystal_density_diffrn 3.3
_diffrn_ambient_temperature 293.
_citation_title

;
Synthesis, structure and magnetic properties of V4 O9 - A missing link in
binary vanadium oxides
;
loop_
_citation_id
_citation_journal_full
_citation_year
_citation_journal_volume
_citation_page_first
_citation_page_last
_citation_journal_id_ASTM
primary 'Journal of Solid State Chemistry' 2010 183 1496 1503 JSSCBI
loop_
_citation_author_citation_id
_citation_author_name
primary 'Yamazaki, S.'
primary 'Li Chang'
primary 'Ohoyama, K.'
primary 'Nishi, M.'
primary 'Ichihara, M.'
primary 'Ueda, H.'
primary 'Ueda, Y.'
_cell_length_a 10.356
_cell_length_b 8.174
_cell_length_c 16.559
_cell_angle_alpha 90.
_cell_angle_beta 90.
_cell_angle_gamma 90.
_cell_volume 1401.72
_cell_formula_units_Z 8
_space_group_name_H-M_alt 'C m c m'
_space_group_IT_number 63
loop_
_space_group_symop_id
_space_group_symop_operation_xyz
1 '-x, y, -z+1/2'
2 '-x, -y, z+1/2'
3 '-x, y, z'
4 '-x, -y, -z'
5 'x, -y, z+1/2'
6 'x, y, -z+1/2'
7 'x, -y, -z'
8 'x, y, z'
9 '-x+1/2, y+1/2, -z+1/2'
10 '-x+1/2, -y+1/2, z+1/2'
11 '-x+1/2, y+1/2, z'
12 '-x+1/2, -y+1/2, -z'
13 'x+1/2, -y+1/2, z+1/2'
14 'x+1/2, y+1/2, -z+1/2'
15 'x+1/2, -y+1/2, -z'
16 'x+1/2, y+1/2, z'
loop_
_atom_type_symbol
_atom_type_oxidation_number
V4+ 4
V5+ 5
O2- -2
loop_
_atom_site_label
_atom_site_type_symbol
_atom_site_symmetry_multiplicity
_atom_site_Wyckoff_symbol
_atom_site_fract_x
_atom_site_fract_y
_atom_site_fract_z
_atom_site_B_iso_or_equiv
_atom_site_occupancy
V1 V4+ 8 f 0. 0.295 0.656 . 1.
V2 V4+ 8 f 0. 0.353 0.13 . 1.
V3 V5+ 16 h 0.209 0.013 0.096 . 1.
O1 O2- 4 c 0. 0.32 0.25 . 1.
O2 O2- 4 c 0. 0.709 0.25 . 1.
O3 O2- 8 e 0.204 0. 0. . 1.
O4 O2- 8 f 0. 0.338 0.001 . 1.
O5 O2- 16 h 0.371 0.002 0.132 . 1.
O6 O2- 16 h 0.138 0.191 0.12 . 1.
O7 O2- 16 h 0.366 0.318 0.13 . 1.
#End of TTdata_174441-ICSD