
#(C) 2022 by FIZ Karlsruhe - Leibniz Institute for Information Infrastructure.  All rights reserved.
data_197-ICSD
_database_code_ICSD 197
_audit_creation_date 1980-01-01
_audit_update_record 2018-08-01
_chemical_name_common 'Vanadium oxide (7/13)'
_chemical_formula_structural 'V7 O13'
_chemical_formula_sum 'O13 V7'
_exptl_crystal_density_diffrn 4.72
_citation_title 'Crystal structures of VnO2n-1(2<=n<=7)'
loop_
_citation_id
_citation_journal_full
_citation_year
_citation_journal_volume
_citation_page_first
_citation_page_last
_citation_journal_id_ASTM
primary 'Journal of Solid State Chemistry' 1976 17 407 424 JSSCBI
loop_
_citation_author_citation_id
_citation_author_name
primary 'Horiuchi, Hiroyuki'
primary 'Morimoto, Nobuo'
primary 'Tokonami, Masayasu'
_cell_length_a 5.439
_cell_length_b 7.005
_cell_length_c 11.076
_cell_angle_alpha 84.316
_cell_angle_beta 88.615
_cell_angle_gamma 71.
_cell_volume 397.03
_cell_formula_units_Z 2
_space_group_name_H-M_alt 'P -1'
_space_group_IT_number 2
loop_
_space_group_symop_id
_space_group_symop_operation_xyz
1 '-x, -y, -z'
2 'x, y, z'
loop_
_atom_type_symbol
_atom_type_oxidation_number
V0+ 0
O0+ 0
loop_
_atom_site_label
_atom_site_type_symbol
_atom_site_symmetry_multiplicity
_atom_site_Wyckoff_symbol
_atom_site_fract_x
_atom_site_fract_y
_atom_site_fract_z
_atom_site_B_iso_or_equiv
_atom_site_occupancy
V1 V0+ 2 i 0.29372 0.71166 0.4478 0.33 1.
V2 V0+ 2 i 0.29856 0.21138 0.44237 0.35 1.
V3 V0+ 2 i 0.71405 0.48436 0.29382 0.32 1.
V4 V0+ 2 i 0.28371 0.02197 0.70821 0.36 1.
V5 V0+ 2 i 0.11023 0.23579 0.14361 0.41 1.
V6 V0+ 2 i 0.11258 0.73556 0.14798 0.38 1.
V7 V0+ 1 d 0.5 0. 0. 0.43 1.
V8 V0+ 1 e 0.5 0.5 0. 0.36 1.
O1 O0+ 2 i 0.30026 0.4484 0.52784 0.46 1.
O2 O0+ 2 i 0.04324 0.16105 0.55591 0.47 1.
O3 O0+ 2 i 0.55446 0.0712 0.59284 0.43 1.
O4 O0+ 2 i 0.63144 0.23695 0.37451 0.52 1.
O5 O0+ 2 i 0.4126 0.3095 0.3198 0.63 1.
O6 O0+ 2 i 0.3533 0.63445 0.29135 0.45 1.
O7 O0+ 2 i 0.17346 0.29415 0.75189 0.48 1.
O8 O0+ 2 i 0.00272 0.0063 0.20588 0.49 1.
O9 O0+ 2 i 0.4738 0.07325 0.16885 0.62 1.
O10 O0+ 2 i 0.7452 0.40175 0.13795 0.66 1.
O11 O0+ 2 i 0.2187 0.4656 0.1 0.64 1.
O12 O0+ 2 i 0.3925 0.7694 0.0517 0.54 1.
O13 O0+ 2 i 0.13364 0.1675 0.98466 0.52 1.
#End of TTdata_197-ICSD