
#(C) 2022 by FIZ Karlsruhe - Leibniz Institute for Information Infrastructure.  All rights reserved.
data_56461-ICSD
_database_code_ICSD 56461
_audit_creation_date 2003-04-01
_chemical_name_common 'Copper vanadium oxide (0.34/2/5) - beta''
_chemical_formula_structural 'Cu0.34 (V2 O5)'
_chemical_formula_sum 'Cu0.34 O5 V2'
_chemical_name_structure_type NaxV2O5
_exptl_crystal_density_diffrn 3.8
_diffrn_ambient_temperature 296.
_citation_title

;
Vanadium oxide bronzes - the double mixed valence phases Cu(+)xt Cz(2+)x(1-t)
V(5+)2-x(2-t) V(4+)x(2-t) O5. A joint XRD and ESCA investigation
;
loop_
_citation_id
_citation_journal_full
_citation_year
_citation_journal_volume
_citation_page_first
_citation_page_last
_citation_journal_id_ASTM
primary 'Zeitschrift fuer Kristallographie' 1994 209 405 412 ZEKRDZ
loop_
_citation_author_citation_id
_citation_author_name
primary 'Savariault, J.M.'
primary 'Deramond, E.'
primary 'Galy, J.'
_cell_length_a 15.218
_cell_length_b 3.6271
_cell_length_c 10.087
_cell_angle_alpha 90.
_cell_angle_beta 106.55
_cell_angle_gamma 90.
_cell_volume 533.71
_cell_formula_units_Z 6
_space_group_name_H-M_alt 'C 1 2/m 1'
_space_group_IT_number 12
loop_
_space_group_symop_id
_space_group_symop_operation_xyz
1 '-x, y, -z'
2 '-x, -y, -z'
3 'x, -y, z'
4 'x, y, z'
5 '-x+1/2, y+1/2, -z'
6 '-x+1/2, -y+1/2, -z'
7 'x+1/2, -y+1/2, z'
8 'x+1/2, y+1/2, z'
loop_
_atom_type_symbol
_atom_type_oxidation_number
V4+ 4.78
V4+ 4.61
V4+ 4.87
O2- -2
Cu1+ 1.61
Cu1+ 1.69
loop_
_atom_site_label
_atom_site_type_symbol
_atom_site_symmetry_multiplicity
_atom_site_Wyckoff_symbol
_atom_site_fract_x
_atom_site_fract_y
_atom_site_fract_z
_atom_site_B_iso_or_equiv
_atom_site_occupancy
V1 V4+ 4 i 0.33343 0. 0.09279 0.45 1.
V2 V4+ 4 i 0.11346 0. 0.12004 0.69 1.
V3 V4+ 4 i 0.28654 0. 0.40607 0.68 1.
O1 O2- 2 a 0. 0. 0. 0.83 1.
O2 O2- 4 i 0.8118 0. 0.0472 0.74 1.
O3 O2- 4 i 0.6325 0. 0.0832 0.66 1.
O4 O2- 4 i 0.4321 0. 0.2048 1.06 1.
O5 O2- 4 i 0.2603 0. 0.2222 0.73 1.
O6 O2- 4 i 0.0979 0. 0.2736 1.52 1.
O7 O2- 4 i 0.245 0. 0.5756 1.07 1.
O8 O2- 4 i 0.397 0. 0.4594 1.49 1.
Cu1 Cu1+ 4 i 0.5409 0. 0.3473 2.39 0.32
Cu2 Cu1+ 8 j 0.0239 0.4083 0.3635 2.25 0.095
#End of TTdata_56461-ICSD