
#(C) 2022 by FIZ Karlsruhe - Leibniz Institute for Information Infrastructure.  All rights reserved.
data_150680-ICSD
_database_code_ICSD 150680
_audit_creation_date 2006-04-01
_audit_update_record 2013-02-01
_chemical_name_common 'Copper vanadium oxide (2.33/4/11) - V4 O11-part'
_chemical_formula_structural 'Cu2.33 V4 O11'
_chemical_formula_sum 'Cu2.33 O11 V4'
_exptl_crystal_density_diffrn 4.42
_citation_title 'The composite structure of Cu2.33-x V4 O11'
loop_
_citation_id
_citation_journal_full
_citation_year
_citation_journal_volume
_citation_page_first
_citation_page_last
_citation_journal_id_ASTM
primary 'Journal of Solid State Chemistry' 2003 172 319 326 JSSCBI
loop_
_citation_author_citation_id
_citation_author_name
primary 'Rozier, P.'
primary 'Lidin, S.'
_cell_length_a 15.28
_cell_length_b 3.616
_cell_length_c 14.674
_cell_angle_alpha 90.
_cell_angle_beta 101.95
_cell_angle_gamma 90.
_cell_volume 793.2
_cell_formula_units_Z 4
_space_group_name_H-M_alt 'C 1 m 1'
_space_group_IT_number 8
loop_
_space_group_symop_id
_space_group_symop_operation_xyz
1 'x, -y, z'
2 'x, y, z'
3 'x+1/2, -y+1/2, z'
4 'x+1/2, y+1/2, z'
loop_
_atom_type_symbol
_atom_type_oxidation_number
V5+ 5
O2- -2
Cu0+ 0.86
loop_
_atom_site_label
_atom_site_type_symbol
_atom_site_symmetry_multiplicity
_atom_site_Wyckoff_symbol
_atom_site_fract_x
_atom_site_fract_y
_atom_site_fract_z
_atom_site_U_iso_or_equiv
_atom_site_occupancy
V1 V5+ 4 b 0.1051 0.235 0.0714 0.0045 1.
V2 V5+ 4 b 0.3277 0.234 0.0729 0.0045 1.
V3 V5+ 4 b 0.1747 0.266 0.4291 0.0045 1.
V4 V5+ 4 b 0.3868 0.265 0.42 0.0045 1.
O1 O2- 4 b 0. 0.24 0. 0.0054 1.
O2 O2- 4 b 0.1892 0.23 0.465 0.0054 1.
O3 O2- 4 b 0.3733 0.246 0.443 0.0054 1.
O4 O2- 4 b 0.4224 0.226 0.145 0.0054 1.
O5 O2- 4 b 0.2473 0.227 0.146 0.0054 1.
O6 O2- 4 b 0.079 0.21 0.179 0.0054 1.
O7 O2- 4 b 0.0805 0.268 0.351 0.0054 1.
O8 O2- 4 b 0.2515 0.272 0.3505 0.0054 1.
O9 O2- 4 b 0.411 0.283 0.319 0.0054 1.
O10 O2- 4 b 0.3131 0.277 0.034 0.0054 1.
O11 O2- 4 b 0.1316 0.262 0.048 0.0054 1.
#End of TTdata_150680-ICSD