
#(C) 2022 by FIZ Karlsruhe - Leibniz Institute for Information Infrastructure.  All rights reserved.
data_258395-ICSD
_database_code_ICSD 258395
_audit_creation_date 2018-02-01
_chemical_name_common 'Copper(II) vanadate(V) - alpha phase'
_chemical_formula_structural 'Cu2 V2 O7'
_chemical_formula_sum 'Cu2 O7 V2'
_chemical_name_structure_type Cu2V2O7
_exptl_crystal_density_diffrn 4.03
_diffrn_ambient_temperature 5.
_citation_title
'Magnetism and magnetoelectricity in the polar oxide alpha-Cu2V2O7'
loop_
_citation_id
_citation_journal_full
_citation_year
_citation_journal_volume
_citation_page_first
_citation_page_last
_citation_journal_id_ASTM
primary 'EPL - A Letters Journal Exploring the Frontiers of Physics' 2016 113 1
6 EPLAC4
loop_
_citation_author_citation_id
_citation_author_name
primary 'Lee, Y.W.'
primary 'Jang, T.H.'
primary 'Dissanayake, S.E.'
primary 'Lee, Seunghun'
primary 'Jeong, Yoon H.'
_cell_length_a 8.4277
_cell_length_b 20.6892
_cell_length_c 6.4398
_cell_angle_alpha 90.
_cell_angle_beta 90.
_cell_angle_gamma 90.
_cell_volume 1122.86
_cell_formula_units_Z 8
_space_group_name_H-M_alt 'F d d 2'
_space_group_IT_number 43
loop_
_space_group_symop_id
_space_group_symop_operation_xyz
1 'x+1/4, -y+1/4, z+1/4'
2 '-x+1/4, y+1/4, z+1/4'
3 '-x, -y, z'
4 'x, y, z'
5 'x+1/4, -y+3/4, z+3/4'
6 '-x+1/4, y+3/4, z+3/4'
7 '-x, -y+1/2, z+1/2'
8 'x, y+1/2, z+1/2'
9 'x+3/4, -y+1/4, z+3/4'
10 '-x+3/4, y+1/4, z+3/4'
11 '-x+1/2, -y, z+1/2'
12 'x+1/2, y, z+1/2'
13 'x+3/4, -y+3/4, z+1/4'
14 '-x+3/4, y+3/4, z+1/4'
15 '-x+1/2, -y+1/2, z'
16 'x+1/2, y+1/2, z'
loop_
_atom_type_symbol
_atom_type_oxidation_number
Cu2+ 2
V5+ 5
O2- -2
loop_
_atom_site_label
_atom_site_type_symbol
_atom_site_symmetry_multiplicity
_atom_site_Wyckoff_symbol
_atom_site_fract_x
_atom_site_fract_y
_atom_site_fract_z
_atom_site_B_iso_or_equiv
_atom_site_occupancy
Cu1 Cu2+ 16 b 0.1133 0.0842 0.5 0.24 1.
V1 V5+ 16 b 0.1523 0.0536 0.0102 0.3 1.
O1 O2- 16 b 0.3127 0.0043 0.0204 0.48 1.
O2 O2- 16 b 0.0608 0.3554 0.026 0.39 1.
O3 O2- 16 b 0.0969 0.0881 0.204 0.39 1.
O4 O2- 8 a 0. 0. 0.9009 0.67 1.
#End of TTdata_258395-ICSD