
#(C) 2022 by FIZ Karlsruhe - Leibniz Institute for Information Infrastructure.  All rights reserved.
data_34756-ICSD
_database_code_ICSD 34756
_audit_creation_date 1980-01-01
_audit_update_record 2005-10-01
_chemical_name_common 'Dicopper divanadate - alpha'
_chemical_formula_structural 'Cu2 (V2 O7)'
_chemical_formula_sum 'Cu2 O7 V2'
_chemical_name_structure_type Cu2V2O7
_chemical_name_mineral Blossite
_exptl_crystal_density_diffrn 4.04
_citation_title

;
Structure cristalline de la variete basse temperature du pyrovanadate de
cuivre: Cu2 V2 O7 alpha
;
loop_
_citation_id
_citation_journal_full
_citation_year
_citation_journal_volume
_citation_page_first
_citation_page_last
_citation_journal_id_ASTM
primary

;
Acta Crystallographica, Section B: Structural Crystallography and Crystal
Chemistry
; 1973 29 2737 2741 ACBCAR
loop_
_citation_author_citation_id
_citation_author_name
primary 'Mercurio Lavaud, D.'
primary 'Frit, B.'
_cell_length_a 8.411
_cell_length_b 20.68
_cell_length_c 6.448
_cell_angle_alpha 90.
_cell_angle_beta 90.
_cell_angle_gamma 90.
_cell_volume 1121.56
_cell_formula_units_Z 8
_space_group_name_H-M_alt 'F d d 2'
_space_group_IT_number 43
loop_
_space_group_symop_id
_space_group_symop_operation_xyz
1 'x+1/4, -y+1/4, z+1/4'
2 '-x+1/4, y+1/4, z+1/4'
3 '-x, -y, z'
4 'x, y, z'
5 'x+1/4, -y+3/4, z+3/4'
6 '-x+1/4, y+3/4, z+3/4'
7 '-x, -y+1/2, z+1/2'
8 'x, y+1/2, z+1/2'
9 'x+3/4, -y+1/4, z+3/4'
10 '-x+3/4, y+1/4, z+3/4'
11 '-x+1/2, -y, z+1/2'
12 'x+1/2, y, z+1/2'
13 'x+3/4, -y+3/4, z+1/4'
14 '-x+3/4, y+3/4, z+1/4'
15 '-x+1/2, -y+1/2, z'
16 'x+1/2, y+1/2, z'
loop_
_atom_type_symbol
_atom_type_oxidation_number
Cu2+ 2
V5+ 5
O2- -2
loop_
_atom_site_label
_atom_site_type_symbol
_atom_site_symmetry_multiplicity
_atom_site_Wyckoff_symbol
_atom_site_fract_x
_atom_site_fract_y
_atom_site_fract_z
_atom_site_B_iso_or_equiv
_atom_site_occupancy
Cu1 Cu2+ 16 b 0.136 0.166 0.25 1.17 1.
V1 V5+ 16 b 0.345 0.051 0.016 0.74 1.
O1 O2- 8 a 0. 0. 0.598 2.58 1.
O2 O2- 16 b 0.06 0.256 0.221 1.89 1.
O3 O2- 16 b 0.312 0.106 0.222 1.03 1.
O4 O2- 16 b 0.161 0.162 0.539 1.9 1.
#End of TTdata_34756-ICSD