
#(C) 2022 by FIZ Karlsruhe - Leibniz Institute for Information Infrastructure.  All rights reserved.
data_67850-ICSD
_database_code_ICSD 67850
_audit_creation_date 1995-01-10
_audit_update_record 1999-01-19
_chemical_name_common 'Copper oxide'
_chemical_formula_structural 'Cu O'
_chemical_formula_sum 'Cu1 O1'
_chemical_name_structure_type CuO(mS8)
_chemical_name_mineral Tenorite
_exptl_crystal_density_diffrn 6.49
_citation_title

;
Microstructural characterization of nanocrystals of Zn O and Cu O obtained
from basic salts
;
loop_
_citation_id
_citation_journal_full
_citation_year
_citation_journal_volume
_citation_page_first
_citation_page_last
_citation_journal_id_ASTM
primary 'Solid State Ionics' 1993 63 442 449 SSIOD3
loop_
_citation_author_citation_id
_citation_author_name
primary 'Garcia-Martinez, O.'
primary 'Rojas, R.M.'
primary 'Vila, E.'
primary 'Martin de Vidales, J.L.'
_cell_length_a 4.6797
_cell_length_b 3.4314
_cell_length_c 5.1362
_cell_angle_alpha 90.
_cell_angle_beta 99.262
_cell_angle_gamma 90.
_cell_volume 81.4
_cell_formula_units_Z 4
_space_group_name_H-M_alt 'C 1 2/c 1'
_space_group_IT_number 15
loop_
_space_group_symop_id
_space_group_symop_operation_xyz
1 'x, -y, z+1/2'
2 '-x, -y, -z'
3 '-x, y, -z+1/2'
4 'x, y, z'
5 'x+1/2, -y+1/2, z+1/2'
6 '-x+1/2, -y+1/2, -z'
7 '-x+1/2, y+1/2, -z+1/2'
8 'x+1/2, y+1/2, z'
loop_
_atom_type_symbol
_atom_type_oxidation_number
Cu2+ 2
O2- -2
loop_
_atom_site_label
_atom_site_type_symbol
_atom_site_symmetry_multiplicity
_atom_site_Wyckoff_symbol
_atom_site_fract_x
_atom_site_fract_y
_atom_site_fract_z
_atom_site_B_iso_or_equiv
_atom_site_occupancy
Cu1 Cu2+ 4 d 0.25 0.25 0.5 0.79 1.
O1 O2- 4 e 0. 0.0822 0.25 0.79 1.
#End of TTdata_67850-ICSD