
#(C) 2022 by FIZ Karlsruhe - Leibniz Institute for Information Infrastructure.  All rights reserved.
data_87126-ICSD
_database_code_ICSD 87126
_audit_creation_date 2000-07-15
_chemical_name_common 'Copper oxide'
_chemical_formula_structural 'Cu O'
_chemical_formula_sum 'Cu1 O1'
_chemical_name_structure_type CuO(mS8)
_exptl_crystal_density_diffrn 6.51
_citation_title

;
X-ray powder diffraction ab initio structure solution of materials from solid
state synthesis: the copper oxide case
;
loop_
_citation_id
_citation_journal_full
_citation_year
_citation_journal_volume
_citation_page_first
_citation_page_last
_citation_journal_id_ASTM
primary 'Zeitschrift fuer Kristallographie' 1998 213 259 265 ZEKRDZ
loop_
_citation_author_citation_id
_citation_author_name
primary 'Massarotti, V.'
primary 'Capsoni, D.'
primary 'Bini, M.'
primary 'Altomare, A.'
primary 'Moliterni, A.G.G.'
_cell_length_a 4.689
_cell_length_b 3.42
_cell_length_c 5.13
_cell_angle_alpha 90.
_cell_angle_beta 99.57
_cell_angle_gamma 90.
_cell_volume 81.12
_cell_formula_units_Z 4
_space_group_name_H-M_alt 'C 1 c 1'
_space_group_IT_number 9
loop_
_space_group_symop_id
_space_group_symop_operation_xyz
1 'x, -y, z+1/2'
2 'x, y, z'
3 'x+1/2, -y+1/2, z+1/2'
4 'x+1/2, y+1/2, z'
loop_
_atom_type_symbol
_atom_type_oxidation_number
Cu2+ 2
O2- -2
loop_
_atom_site_label
_atom_site_type_symbol
_atom_site_symmetry_multiplicity
_atom_site_Wyckoff_symbol
_atom_site_fract_x
_atom_site_fract_y
_atom_site_fract_z
_atom_site_B_iso_or_equiv
_atom_site_occupancy
Cu1 Cu2+ 4 a 0.223 0.232 0.734 . 1.
O1 O2- 4 a 0. 0.087 0. . 1.
#End of TTdata_87126-ICSD