
#(C) 2022 by FIZ Karlsruhe - Leibniz Institute for Information Infrastructure.  All rights reserved.
data_157159-ICSD
_database_code_ICSD 157159
_audit_creation_date 2008-02-01
_audit_update_record 2011-02-01
_chemical_name_common 'Bismuth vanadium oxide (1.77/0.88/4.87)'
_chemical_formula_structural 'Bi1.77 V0.88 O4.87'
_chemical_formula_sum 'Bi1.77 O4.87 V0.88'
_chemical_name_structure_type Bi2-xVO5-y
_exptl_crystal_density_diffrn 6.85
_citation_title

;
Structural peculiarities of BIMEVOX (Me = V, Zn, Sc, Sb, In, Pb) Aurivillius
phases obtained by mechanochemical synthesis
;
loop_
_citation_id
_citation_journal_full
_citation_year
_citation_journal_volume
_citation_page_first
_citation_page_last
_citation_journal_id_ASTM
primary 'Zhurnal Strukturnoi Khimii' 2004 45 135 143 ZSTKAI
loop_
_citation_author_citation_id
_citation_author_name
primary 'Zyryanov, V.V.'
_cell_length_a 3.94
_cell_length_b 3.94
_cell_length_c 15.38
_cell_angle_alpha 90.
_cell_angle_beta 90.
_cell_angle_gamma 90.
_cell_volume 238.75
_cell_formula_units_Z 2
_space_group_name_H-M_alt 'I 4/m m m'
_space_group_IT_number 139
loop_
_space_group_symop_id
_space_group_symop_operation_xyz
1 'y, x, -z'
2 '-y, -x, -z'
3 '-y, x, -z'
4 'y, -x, -z'
5 '-x, y, -z'
6 'x, -y, -z'
7 'x, y, -z'
8 '-x, -y, -z'
9 '-y, -x, z'
10 'y, x, z'
11 'y, -x, z'
12 '-y, x, z'
13 'x, -y, z'
14 '-x, y, z'
15 '-x, -y, z'
16 'x, y, z'
17 'y+1/2, x+1/2, -z+1/2'
18 '-y+1/2, -x+1/2, -z+1/2'
19 '-y+1/2, x+1/2, -z+1/2'
20 'y+1/2, -x+1/2, -z+1/2'
21 '-x+1/2, y+1/2, -z+1/2'
22 'x+1/2, -y+1/2, -z+1/2'
23 'x+1/2, y+1/2, -z+1/2'
24 '-x+1/2, -y+1/2, -z+1/2'
25 '-y+1/2, -x+1/2, z+1/2'
26 'y+1/2, x+1/2, z+1/2'
27 'y+1/2, -x+1/2, z+1/2'
28 '-y+1/2, x+1/2, z+1/2'
29 'x+1/2, -y+1/2, z+1/2'
30 '-x+1/2, y+1/2, z+1/2'
31 '-x+1/2, -y+1/2, z+1/2'
32 'x+1/2, y+1/2, z+1/2'
loop_
_atom_type_symbol
_atom_type_oxidation_number
Bi3+ 3
V5+ 5
Bi3+ 3
O2- -2
loop_
_atom_site_label
_atom_site_type_symbol
_atom_site_symmetry_multiplicity
_atom_site_Wyckoff_symbol
_atom_site_fract_x
_atom_site_fract_y
_atom_site_fract_z
_atom_site_B_iso_or_equiv
_atom_site_occupancy
Bi1 Bi3+ 4 e 0. 0. 0.3332 0.2 0.827
V1 V5+ 2 a 0. 0. 0. 0.2 0.885
Bi2 Bi3+ 2 a 0. 0. 0. 0.2 0.115
O1 O2- 4 e 0. 0. 0.1266 0.7 0.606
O2 O2- 4 c 0. 0.5 0. 0.6 1.
O3 O2- 4 d 0. 0.5 0.25 0.7 0.827
#End of TTdata_157159-ICSD