
#(C) 2022 by FIZ Karlsruhe - Leibniz Institute for Information Infrastructure.  All rights reserved.
data_27310-ICSD
_database_code_ICSD 27310
_audit_creation_date 1980-01-01
_audit_update_record 1985-05-17
_chemical_name_common 'Tricopper vanadate'
_chemical_formula_structural 'Cu3 V2 O8'
_chemical_formula_sum 'Cu3 O8 V2'
_chemical_name_structure_type Cu3(VO4)2
_exptl_crystal_density_diffrn 4.71
_citation_title 'Crystal Structure of a New Form of Cu3 V2 O8'
loop_
_citation_id
_citation_journal_full
_citation_year
_citation_journal_volume
_citation_page_first
_citation_page_last
_citation_journal_id_ASTM
primary 'Canadian Journal of Chemistry' 1972 50 3944 3949 CJCHAG
loop_
_citation_author_citation_id
_citation_author_name
primary 'Shannon, R.D.'
primary 'Calvo, C.'
_cell_length_a 6.2493
_cell_length_b 7.9936
_cell_length_c 6.3776
_cell_angle_alpha 90.
_cell_angle_beta 111.49
_cell_angle_gamma 90.
_cell_volume 296.44
_cell_formula_units_Z 2
_space_group_name_H-M_alt 'P 1 21/c 1'
_space_group_IT_number 14
loop_
_space_group_symop_id
_space_group_symop_operation_xyz
1 'x, -y+1/2, z+1/2'
2 '-x, -y, -z'
3 '-x, y+1/2, -z+1/2'
4 'x, y, z'
loop_
_atom_type_symbol
_atom_type_oxidation_number
Cu2+ 2
V5+ 5
O2- -2
loop_
_atom_site_label
_atom_site_type_symbol
_atom_site_symmetry_multiplicity
_atom_site_Wyckoff_symbol
_atom_site_fract_x
_atom_site_fract_y
_atom_site_fract_z
_atom_site_B_iso_or_equiv
_atom_site_occupancy
Cu1 Cu2+ 2 b 0.5 0. 0. . 1.
Cu2 Cu2+ 4 e 0.2362 0.2546 0.1085 . 1.
V1 V5+ 4 e 0.751 0.3815 0.1418 . 1.
O1 O2- 4 e 0.5105 0.2378 0.0351 . 1.
O2 O2- 4 e 0.2676 0.0077 0.1427 . 1.
O3 O2- 4 e 0.0024 0.2739 0.2382 . 1.
O4 O2- 4 e 0.2518 0.4976 0.0727 . 1.
loop_
_atom_site_aniso_label
_atom_site_aniso_type_symbol
_atom_site_aniso_U_11
_atom_site_aniso_U_22
_atom_site_aniso_U_33
_atom_site_aniso_U_12
_atom_site_aniso_U_13
_atom_site_aniso_U_23
Cu1 Cu2+ 0.0139 0.0048 0.0131 0. 0.0118 0.
Cu2 Cu2+ 0.011 0.006 0.0109 0.0005 0.0091 0.0004
V1 V5+ 0.0081 0.0048 0.0072 -0.0002 0.0059 0.
O1 O2- 0.0093 0.0086 0.0145 -0.001 0.0093 -0.0012
O2 O2- 0.0143 0.01 0.0102 0.0022 0.011 0.0029
O3 O2- 0.0121 0.0108 0.0111 -0.003 0.0091 -0.0022
O4 O2- 0.0154 0.0069 0.0087 0.0001 0.0076 -0.0012
#End of TTdata_27310-ICSD