
#(C) 2022 by FIZ Karlsruhe - Leibniz Institute for Information Infrastructure.  All rights reserved.
data_9037-ICSD
_database_code_ICSD 9037
_audit_creation_date 1980-01-01
_audit_update_record 2004-04-01
_chemical_name_common 'Vanadium oxide (5/9) - LT'
_chemical_formula_structural 'V5 O9'
_chemical_formula_sum 'O9 V5'
_chemical_name_structure_type Ti5O9
_exptl_crystal_density_diffrn 4.73
_diffrn_ambient_temperature 110.
_citation_title 'Structural aspects of the metal-insulator transition in V5 O9'
loop_
_citation_id
_citation_journal_full
_citation_year
_citation_journal_volume
_citation_page_first
_citation_page_last
_citation_journal_id_ASTM
primary 'Journal of Solid State Chemistry' 1974 11 301 313 JSSCBI
loop_
_citation_author_citation_id
_citation_author_name
primary 'Marezio, M.'
primary 'Dernier, P.D.'
primary 'McWhan, D.B.'
primary 'Kachi, S.'
_cell_length_a 5.467
_cell_length_b 7.007
_cell_length_c 8.3625
_cell_angle_alpha 69.601
_cell_angle_beta 75.095
_cell_angle_gamma 70.89
_cell_volume 279.98
_cell_formula_units_Z 2
_space_group_name_H-M_alt 'P -1'
_space_group_IT_number 2
loop_
_space_group_symop_id
_space_group_symop_operation_xyz
1 '-x, -y, -z'
2 'x, y, z'
loop_
_atom_type_symbol
_atom_type_oxidation_number
V0+ 0
O0+ 0
loop_
_atom_site_label
_atom_site_type_symbol
_atom_site_symmetry_multiplicity
_atom_site_Wyckoff_symbol
_atom_site_fract_x
_atom_site_fract_y
_atom_site_fract_z
_atom_site_B_iso_or_equiv
_atom_site_occupancy
V1 V0+ 1 c 0. 0.5 0. . 1.
V2 V0+ 1 a 0. 0. 0. . 1.
V3 V0+ 2 i 0.35133 0.16725 0.19766 . 1.
V4 V0+ 2 i 0.35889 0.64868 0.21398 . 1.
V5 V0+ 2 i 0.28288 0.17133 0.58445 . 1.
V6 V0+ 2 i 0.72408 0.32243 0.42581 . 1.
O1 O0+ 2 i 0.6225 0.1483 0.0265 . 1.
O2 O0+ 2 i 0.0862 0.1933 0.0809 . 1.
O3 O0+ 2 i 0.2562 0.4655 0.1379 . 1.
O4 O0+ 2 i 0.728 0.5107 0.1937 . 1.
O5 O0+ 2 i 0.0285 0.1901 0.7551 . 1.
O6 O0+ 2 i 0.5933 0.1479 0.678 . 1.
O7 O0+ 2 i 0.5809 0.1347 0.3674 . 1.
O8 O0+ 2 i 0.0712 0.1986 0.4175 . 1.
O9 O0+ 2 i 0.3133 0.4621 0.4624 . 1.
loop_
_atom_site_aniso_label
_atom_site_aniso_type_symbol
_atom_site_aniso_beta_11
_atom_site_aniso_beta_22
_atom_site_aniso_beta_33
_atom_site_aniso_beta_12
_atom_site_aniso_beta_13
_atom_site_aniso_beta_23
V1 V0+ 0.0053 0.0025 0.0016 0.0023 0.0017 0.0008
V2 V0+ 0.0038 0.0029 0.0019 0.0019 0.0002 -0.0005
V3 V0+ 0.0077 0.0037 0.0011 0.0041 0. -0.0001
V4 V0+ 0.0035 0.0029 0.0012 0.0008 0.0008 0.0008
V5 V0+ 0.0046 0.002 0.0017 0.0014 0.002 0.0007
V6 V0+ 0.0069 0.0029 0.0015 0.0029 0.0022 0.0011
O1 O0+ 0.0024 0.0027 0.0018 0.0003 0.0006 0.0006
O2 O0+ 0.0062 0.0021 0.0017 0.0013 0.0018 0.0006
O3 O0+ 0.0031 0.0038 0.0027 0.0012 0.0016 0.0021
O4 O0+ 0.0041 0.0031 0.0029 0.0013 0.0027 0.0013
O5 O0+ 0.0031 0.0033 0.0013 0.0009 0.0014 0.0005
O6 O0+ 0.0054 0.0019 0.0011 0.0018 0.0012 0.0004
O7 O0+ 0.0038 0.0025 0.0015 0.0012 0.0012 0.0006
O8 O0+ 0.0026 0.0023 0.003 0.0014 0.0009 0.0013
O9 O0+ 0.0019 0.0013 0.0014 0. 0.001 0.0003
#End of TTdata_9037-ICSD