
#(C) 2022 by FIZ Karlsruhe - Leibniz Institute for Information Infrastructure.  All rights reserved.
data_18000-ICSD
_database_code_ICSD 18000
_audit_creation_date 1980-01-01
_chemical_name_common 'Copper vanadium oxide (6.8/6/18.8)'
_chemical_formula_structural 'Cu6.78 V6 O18.78'
_chemical_formula_sum 'Cu6.78 O18.78 V6'
_chemical_name_structure_type BaV13O18
_exptl_crystal_density_diffrn 5.04
_citation_title 'The crystal structure of alpha-copper vanadate'
loop_
_citation_id
_citation_journal_full
_citation_year
_citation_journal_volume
_citation_page_first
_citation_page_last
_citation_journal_id_ASTM
primary 'Journal of Solid State Chemistry' 1973 7 17 24 JSSCBI
loop_
_citation_author_citation_id
_citation_author_name
primary 'Rea, J.R.'
primary 'Kostiner, E.'
_cell_length_a 12.857
_cell_length_b 12.857
_cell_length_c 7.161
_cell_angle_alpha 90.
_cell_angle_beta 90.
_cell_angle_gamma 120.
_cell_volume 1025.14
_cell_formula_units_Z 3
_space_group_name_H-M_alt 'R -3 H'
_space_group_IT_number 148
loop_
_space_group_symop_id
_space_group_symop_operation_xyz
1 'x-y, x, -z'
2 'y, -x+y, -z'
3 '-x, -y, -z'
4 '-x+y, -x, z'
5 '-y, x-y, z'
6 'x, y, z'
7 'x-y+2/3, x+1/3, -z+1/3'
8 'y+2/3, -x+y+1/3, -z+1/3'
9 '-x+2/3, -y+1/3, -z+1/3'
10 '-x+y+2/3, -x+1/3, z+1/3'
11 '-y+2/3, x-y+1/3, z+1/3'
12 'x+2/3, y+1/3, z+1/3'
13 'x-y+1/3, x+2/3, -z+2/3'
14 'y+1/3, -x+y+2/3, -z+2/3'
15 '-x+1/3, -y+2/3, -z+2/3'
16 '-x+y+1/3, -x+2/3, z+2/3'
17 '-y+1/3, x-y+2/3, z+2/3'
18 'x+1/3, y+2/3, z+2/3'
loop_
_atom_type_symbol
_atom_type_oxidation_number
Cu2+ 2
V4+ 4
O2- -2
loop_
_atom_site_label
_atom_site_type_symbol
_atom_site_symmetry_multiplicity
_atom_site_Wyckoff_symbol
_atom_site_fract_x
_atom_site_fract_y
_atom_site_fract_z
_atom_site_B_iso_or_equiv
_atom_site_occupancy
Cu1 Cu2+ 3 b 0. 0. 0.5 . 0.78
Cu2 Cu2+ 18 f 0.0962 0.38825 0.06963 . 1.
V1 V4+ 18 f 0.1354 0.153 0.1718 . 1.
O1 O2- 18 f 0.43697 0.06993 0.02033 . 0.9878
O2 O2- 18 f 0.1239 0.017 0.3102 . 0.9878
O3 O2- 18 f 0.0895 0.237 0.0028 . 0.9878
O4 O2- 3 a 0. 0. 0. . 1.
loop_
_atom_site_aniso_label
_atom_site_aniso_type_symbol
_atom_site_aniso_B_11
_atom_site_aniso_B_22
_atom_site_aniso_B_33
_atom_site_aniso_B_12
_atom_site_aniso_B_13
_atom_site_aniso_B_23
Cu1 Cu2+ 0.64 0.64 0.48 0.32 0. 0.
Cu2 Cu2+ 1.35 0.95 1.4 0.46 0.06 0.
V1 V4+ 0.7 0.91 0.67 0.47 0.48 0.02
O1 O2- 0.99 1.1 0.89 0.58 0.01 0.03
O2 O2- 1.21 1.03 1.13 0.87 -0.32 -0.27
O3 O2- 0.72 0.81 0.78 0.38 0.15 0.15
O4 O2- 0.8 0.8 0.96 0.4 0. 0.
#End of TTdata_18000-ICSD