
#(C) 2022 by FIZ Karlsruhe - Leibniz Institute for Information Infrastructure.  All rights reserved.
data_60767-ICSD
_database_code_ICSD 60767
_audit_creation_date 1988-02-22
_audit_update_record 2016-08-01
_chemical_name_common 'Vanadium oxide'
_chemical_formula_structural 'V2 O5'
_chemical_formula_sum 'O5 V2'
_chemical_name_structure_type V2O5
_chemical_name_mineral Shcherbinaite
_exptl_crystal_density_diffrn 3.37
_diffrn_ambient_temperature 292.
_citation_title 'A refinement of the structure of V2 O5'
loop_
_citation_id
_citation_journal_full
_citation_year
_citation_journal_volume
_citation_page_first
_citation_page_last
_citation_journal_id_ASTM
primary 'Acta Crystallographica, Section C: Crystal Structure Communications'
1986 42 1467 1469 ACSCEE
loop_
_citation_author_citation_id
_citation_author_name
primary 'Enjalbert, R.'
primary 'Galy, J.'
_cell_length_a 3.564
_cell_length_b 11.512
_cell_length_c 4.368
_cell_angle_alpha 90.
_cell_angle_beta 90.
_cell_angle_gamma 90.
_cell_volume 179.21
_cell_formula_units_Z 2
_space_group_name_H-M_alt 'P m m n Z'
_space_group_IT_number 59
loop_
_space_group_symop_id
_space_group_symop_operation_xyz
1 'x+1/2, y+1/2, -z'
2 '-x, y+1/2, -z'
3 'x+1/2, -y, -z'
4 '-x, -y, -z'
5 '-x+1/2, -y+1/2, z'
6 'x, -y+1/2, z'
7 '-x+1/2, y, z'
8 'x, y, z'
loop_
_atom_type_symbol
_atom_type_oxidation_number
V5+ 5
O2- -2
loop_
_atom_site_label
_atom_site_type_symbol
_atom_site_symmetry_multiplicity
_atom_site_Wyckoff_symbol
_atom_site_fract_x
_atom_site_fract_y
_atom_site_fract_z
_atom_site_B_iso_or_equiv
_atom_site_occupancy
V1 V5+ 4 e 0.25 0.10118 0.3917 . 1.
O1 O2- 4 e 0.25 0.1043 0.031 . 1.
O2 O2- 4 e 0.25 0.5689 0.503 . 1.
O3 O2- 2 a 0.25 0.25 0.501 . 1.
loop_
_atom_site_aniso_label
_atom_site_aniso_type_symbol
_atom_site_aniso_beta_11
_atom_site_aniso_beta_22
_atom_site_aniso_beta_33
_atom_site_aniso_beta_12
_atom_site_aniso_beta_13
_atom_site_aniso_beta_23
V1 V5+ 0.00088 0.0043 0.0121 0. 0.0006 0.
O1 O2- 0.0025 0.026 0.013 0. 0.001 0.
O2 O2- 0.0011 0.007 0.019 0. 0.001 0.
O3 O2- 0.001 0.012 0.021 0. 0. 0.
#End of TTdata_60767-ICSD