
#(C) 2022 by FIZ Karlsruhe - Leibniz Institute for Information Infrastructure.  All rights reserved.
data_2374-ICSD
_database_code_ICSD 2374
_audit_creation_date 1980-01-01
_audit_update_record 2011-08-01
_chemical_name_common 'Bismuth oxide - alpha'
_chemical_formula_structural 'Bi2 O3'
_chemical_formula_sum 'Bi2 O3'
_chemical_name_structure_type Bi2O3
_exptl_crystal_density_diffrn 9.37
_citation_title

;
On the structure of bismuthsesquioxide: the alpha, beta, gamma and delta-phase
;
loop_
_citation_id
_citation_journal_full
_citation_year
_citation_journal_volume
_citation_page_first
_citation_page_last
_citation_journal_id_ASTM
primary 'Zeitschrift fuer Anorganische und Allgemeine Chemie (1950) (DE)' 1978
444 151 166 ZAACAB
loop_
_citation_author_citation_id
_citation_author_name
primary 'Harwig, H.A.'
_cell_length_a 5.8496
_cell_length_b 8.1648
_cell_length_c 7.5101
_cell_angle_alpha 90.
_cell_angle_beta 112.977
_cell_angle_gamma 90.
_cell_volume 330.23
_cell_formula_units_Z 4
_space_group_name_H-M_alt 'P 1 21/c 1'
_space_group_IT_number 14
loop_
_space_group_symop_id
_space_group_symop_operation_xyz
1 'x, -y+1/2, z+1/2'
2 '-x, -y, -z'
3 '-x, y+1/2, -z+1/2'
4 'x, y, z'
loop_
_atom_type_symbol
_atom_type_oxidation_number
Bi3+ 3
O2- -2
loop_
_atom_site_label
_atom_site_type_symbol
_atom_site_symmetry_multiplicity
_atom_site_Wyckoff_symbol
_atom_site_fract_x
_atom_site_fract_y
_atom_site_fract_z
_atom_site_B_iso_or_equiv
_atom_site_occupancy
Bi1 Bi3+ 4 e 0.5242 0.3157 0.3615 . 1.
Bi2 Bi3+ 4 e 0.0404 0.0425 0.2767 . 1.
O1 O2- 4 e 0.7783 0.3037 0.208 . 1.
O2 O2- 4 e 0.2337 0.4533 0.1266 . 1.
O3 O2- 4 e 0.2658 0.0294 0.0115 . 1.
#End of TTdata_2374-ICSD