
#(C) 2022 by FIZ Karlsruhe - Leibniz Institute for Information Infrastructure.  All rights reserved.
data_70017-ICSD
_database_code_ICSD 70017
_audit_creation_date 1994-06-30
_chemical_name_common 'Copper vanadium oxide (0.83/2/5) - epsilon'
_chemical_formula_structural 'Cu0.828 V2 O5'
_chemical_formula_sum 'Cu0.828 O5 V2'
_exptl_crystal_density_diffrn 4.31
_diffrn_ambient_temperature 292.
_citation_title

;
Ein neues Syntheseverfahren fuer Vanadiumbronzen. Die Kristallstruktur von
beta-Ag0.33 V2 O5. Verfeinerung der Kristallstruktur von epsilon-Cu0.76 V2 O5
;
loop_
_citation_id
_citation_journal_full
_citation_year
_citation_journal_volume
_citation_page_first
_citation_page_last
_citation_journal_id_ASTM
primary 'Zeitschrift fuer Anorganische und Allgemeine Chemie (1950) (DE)' 1993
619 287 292 ZAACAB
loop_
_citation_author_citation_id
_citation_author_name
primary 'Ha-Eierdanz, M.L.'
primary 'Mueller, U.'
_cell_length_a 11.73
_cell_length_b 3.688
_cell_length_c 8.977
_cell_angle_alpha 90.
_cell_angle_beta 111.49
_cell_angle_gamma 90.
_cell_volume 361.35
_cell_formula_units_Z 4
_space_group_name_H-M_alt 'C 1 2/m 1'
_space_group_IT_number 12
loop_
_space_group_symop_id
_space_group_symop_operation_xyz
1 '-x, y, -z'
2 '-x, -y, -z'
3 'x, -y, z'
4 'x, y, z'
5 '-x+1/2, y+1/2, -z'
6 '-x+1/2, -y+1/2, -z'
7 'x+1/2, -y+1/2, z'
8 'x+1/2, y+1/2, z'
loop_
_atom_type_symbol
_atom_type_oxidation_number
Cu1+ 1
V4+ 4.59
O2- -2
loop_
_atom_site_label
_atom_site_type_symbol
_atom_site_symmetry_multiplicity
_atom_site_Wyckoff_symbol
_atom_site_fract_x
_atom_site_fract_y
_atom_site_fract_z
_atom_site_B_iso_or_equiv
_atom_site_occupancy
Cu1 Cu1+ 2 a 0. 0. 0. . 0.91
Cu2 Cu1+ 4 e 0.25 0.25 0. . 0.373
V1 V4+ 4 i 0.2199 0. 0.3348 . 1.
V2 V4+ 4 i 0.5175 0. 0.331 . 1.
O1 O2- 4 i 0.1802 0. 0.139 . 1.
O2 O2- 4 i 0.2948 0. 0.615 . 1.
O3 O2- 4 i 0.3915 0. 0.39 . 1.
O4 O2- 4 i 0.0594 0. 0.359 . 1.
loop_
_atom_site_aniso_label
_atom_site_aniso_type_symbol
_atom_site_aniso_U_11
_atom_site_aniso_U_22
_atom_site_aniso_U_33
_atom_site_aniso_U_12
_atom_site_aniso_U_13
_atom_site_aniso_U_23
Cu1 Cu1+ 0.008 0.036 0.017 0. -0.001 0.
Cu2 Cu1+ 0.029 0.063 0.016 -0.028 0.012 -0.002
V1 V4+ 0.003 0.004 0.015 0. 0.002 0.
V2 V4+ 0.003 0.004 0.015 0. 0.003 0.
O1 O2- 0.017 0.007 0.017 0. 0.007 0.
O2 O2- 0.005 0. 0.03 0. 0.007 0.
O3 O2- 0.005 0. 0.02 0. 0.006 0.
O4 O2- 0.006 0. 0.024 0. 0.011 0.
#End of TTdata_70017-ICSD