
#(C) 2022 by FIZ Karlsruhe - Leibniz Institute for Information Infrastructure.  All rights reserved.
data_424886-ICSD
_database_code_ICSD 424886
_audit_creation_date 2013-08-01
_chemical_name_common 'Vanadium oxide (9/17)'
_chemical_formula_structural 'V9 O17'
_chemical_formula_sum 'O17 V9'
_chemical_name_structure_type Ti9O17
_exptl_crystal_density_diffrn 4.69
_diffrn_ambient_temperature 296.
_citation_title

;
Crystal structures of the high temperature forms of V8 O15 and V9 O17 and
structural trends in the VnO2n-1 Magneli series
;
loop_
_citation_id
_citation_journal_full
_citation_year
_citation_journal_volume
_citation_page_first
_citation_page_last
_citation_journal_id_ASTM
primary 'Journal of Solid State Chemistry' 2013 198 10 17 JSSCBI
loop_
_citation_author_citation_id
_citation_author_name
primary 'Allred, J.M.'
primary 'Cava, R.J.'
_cell_length_a 5.4219
_cell_length_b 7.0142
_cell_length_c 14.5252
_cell_angle_alpha 97.031
_cell_angle_beta 90.99
_cell_angle_gamma 108.963
_cell_volume 517.53
_cell_formula_units_Z 2
_space_group_name_H-M_alt 'P -1'
_space_group_IT_number 2
loop_
_space_group_symop_id
_space_group_symop_operation_xyz
1 '-x, -y, -z'
2 'x, y, z'
loop_
_atom_type_symbol
_atom_type_oxidation_number
O2- -2
V3+ 3.78
loop_
_atom_site_label
_atom_site_type_symbol
_atom_site_symmetry_multiplicity
_atom_site_Wyckoff_symbol
_atom_site_fract_x
_atom_site_fract_y
_atom_site_fract_z
_atom_site_U_iso_or_equiv
_atom_site_occupancy
O1 O2- 2 i 0.1232 0.7899 0.0374 0.0048 1.
O2 O2- 2 i 0.5352 0.0896 0.1539 0.0048 1.
O3 O2- 2 i 0.2854 0.1926 0.8054 0.0048 1.
O4 O2- 2 i 0.1309 0.1051 0.3079 0.0048 1.
O5 O2- 2 i 0.5385 0.3922 0.4296 0.0048 1.
O6 O2- 2 i 0.6395 0.8344 0.012 0.0048 1.
O7 O2- 2 i 0.7737 0.4629 0.1041 0.0048 1.
O8 O2- 2 i 0.1952 0.7595 0.2226 0.0048 1.
O9 O2- 2 i 0.6151 0.0517 0.3389 0.0048 1.
O10 O2- 2 i 0.0363 0.3183 0.4568 0.0048 1.
O11 O2- 2 i 0.2954 0.509 0.0799 0.0048 1.
O12 O2- 2 i 0.0536 0.1338 0.1272 0.0048 1.
O13 O2- 2 i 0.4707 0.4378 0.2456 0.0048 1.
O14 O2- 2 i 0.1117 0.2624 0.6386 0.0048 1.
O15 O2- 2 i 0.0512 0.6119 0.7277 0.0048 1.
O16 O2- 2 i 0.3454 0.6856 0.4031 0.0048 1.
O17 O2- 2 i 0.2947 0.0404 0.4789 0.0048 1.
V1 V3+ 2 i 0.3099 0.3118 0.54489 0.0048 1.
V2 V3+ 2 i 0.6982 0.191 0.45978 0.0057 1.
V3 V3+ 2 i 0.2509 0.3941 0.33894 0.0044 1.
V4 V3+ 2 i 0.2532 0.9033 0.34157 0.0038 1.
V5 V3+ 2 i 0.8296 0.0934 0.2276 0.0043 1.
V6 V3+ 2 i 0.17 0.4089 0.77528 0.0054 1.
V7 V3+ 2 i 0.4149 0.7963 0.11481 0.0056 1.
V8 V3+ 2 i 0.4077 0.2929 0.11255 0.0055 1.
V9 V3+ 1 c 0. 0.5 0. 0.0055 1.
V10 V3+ 1 a 0. 0. 0. 0.0058 1.
loop_
_atom_site_aniso_label
_atom_site_aniso_type_symbol
_atom_site_aniso_U_11
_atom_site_aniso_U_22
_atom_site_aniso_U_33
_atom_site_aniso_U_12
_atom_site_aniso_U_13
_atom_site_aniso_U_23
O1 O2- 0.0046 0.0043 0.0054 0.0015 0.0004 0.0005
O2 O2- 0.0046 0.0043 0.0054 0.0015 0.0004 0.0005
O3 O2- 0.0046 0.0043 0.0054 0.0015 0.0004 0.0005
O4 O2- 0.0046 0.0043 0.0054 0.0015 0.0004 0.0005
O5 O2- 0.0046 0.0043 0.0054 0.0015 0.0004 0.0005
O6 O2- 0.0046 0.0043 0.0054 0.0015 0.0004 0.0005
O7 O2- 0.0046 0.0043 0.0054 0.0015 0.0004 0.0005
O8 O2- 0.0046 0.0043 0.0054 0.0015 0.0004 0.0005
O9 O2- 0.0046 0.0043 0.0054 0.0015 0.0004 0.0005
O10 O2- 0.0046 0.0043 0.0054 0.0015 0.0004 0.0005
O11 O2- 0.0046 0.0043 0.0054 0.0015 0.0004 0.0005
O12 O2- 0.0046 0.0043 0.0054 0.0015 0.0004 0.0005
O13 O2- 0.0046 0.0043 0.0054 0.0015 0.0004 0.0005
O14 O2- 0.0046 0.0043 0.0054 0.0015 0.0004 0.0005
O15 O2- 0.0046 0.0043 0.0054 0.0015 0.0004 0.0005
O16 O2- 0.0046 0.0043 0.0054 0.0015 0.0004 0.0005
O17 O2- 0.0046 0.0043 0.0054 0.0015 0.0004 0.0005
V1 V3+ 0.0053 0.0044 0.0047 0.0015 0.0017 0.0003
V2 V3+ 0.0055 0.0056 0.0066 0.0023 0.0018 0.0016
V3 V3+ 0.005 0.004 0.0038 0.0013 -0.0015 -0.0002
V4 V3+ 0.004 0.0031 0.0039 0.001 0. 0.
V5 V3+ 0.0052 0.0044 0.0035 0.0023 0. -0.0003
V6 V3+ 0.0055 0.0039 0.0069 0.0015 0.0003 0.0018
V7 V3+ 0.0057 0.0042 0.007 0.0018 0.0003 0.0004
V8 V3+ 0.006 0.0055 0.0057 0.0029 0.0012 0.0012
V9 V3+ 0.0066 0.0042 0.0062 0.0023 -0.0009 0.0012
V10 V3+ 0.0057 0.0056 0.0066 0.0019 0.0025 0.002
#End of TTdata_424886-ICSD