
#(C) 2022 by FIZ Karlsruhe - Leibniz Institute for Information Infrastructure.  All rights reserved.
data_39619-ICSD
_database_code_ICSD 39619
_audit_creation_date 1993-08-22
_audit_update_record 2015-02-01
_chemical_name_common 'Bismuth oxide (12.8/19.2) - gamma'
_chemical_formula_structural 'Bi12.8 O19.2'
_chemical_formula_sum 'Bi12.8 O19.2'
_chemical_name_structure_type Sillenite#Bi12SiO20
_chemical_name_mineral Sillenite
_exptl_crystal_density_diffrn 9.2
_diffrn_ambient_temperature 295.
_citation_title

;
Structure of sillenites and atomic mechanism of isomorphous displacements in
them.
;
loop_
_citation_id
_citation_journal_full
_citation_year
_citation_journal_volume
_citation_page_first
_citation_page_last
_citation_journal_id_ASTM
primary Kristallografiya 1992 37 914 941 KRISAJ
loop_
_citation_author_citation_id
_citation_author_name
primary 'Radaev, S.F.'
primary 'Simonov, V.I.'
_cell_length_a 10.2501
_cell_length_b 10.2501
_cell_length_c 10.2501
_cell_angle_alpha 90.
_cell_angle_beta 90.
_cell_angle_gamma 90.
_cell_volume 1076.92
_cell_formula_units_Z 2
_space_group_name_H-M_alt 'I 2 3'
_space_group_IT_number 197
loop_
_space_group_symop_id
_space_group_symop_operation_xyz
1 '-z, -x, y'
2 '-y, -z, x'
3 '-x, -y, z'
4 '-z, x, -y'
5 '-y, z, -x'
6 '-x, y, -z'
7 'z, -x, -y'
8 'y, -z, -x'
9 'x, -y, -z'
10 'z, x, y'
11 'y, z, x'
12 'x, y, z'
13 '-z+1/2, -x+1/2, y+1/2'
14 '-y+1/2, -z+1/2, x+1/2'
15 '-x+1/2, -y+1/2, z+1/2'
16 '-z+1/2, x+1/2, -y+1/2'
17 '-y+1/2, z+1/2, -x+1/2'
18 '-x+1/2, y+1/2, -z+1/2'
19 'z+1/2, -x+1/2, -y+1/2'
20 'y+1/2, -z+1/2, -x+1/2'
21 'x+1/2, -y+1/2, -z+1/2'
22 'z+1/2, x+1/2, y+1/2'
23 'y+1/2, z+1/2, x+1/2'
24 'x+1/2, y+1/2, z+1/2'
loop_
_atom_type_symbol
_atom_type_oxidation_number
Bi3+ 3
O2- -2
loop_
_atom_site_label
_atom_site_type_symbol
_atom_site_symmetry_multiplicity
_atom_site_Wyckoff_symbol
_atom_site_fract_x
_atom_site_fract_y
_atom_site_fract_z
_atom_site_B_iso_or_equiv
_atom_site_occupancy
Bi1 Bi3+ 24 f 0.0096 0.176 0.3203 1.6 1.
Bi2 Bi3+ 2 a 0. 0. 0. 0.8 0.8
O1 O2- 24 f 0.0038 0.3635 0.2524 1.2 1.
O2 O2- 8 c 0.1874 0.1874 0.1874 2.6 1.
O3 O2- 8 c 0.3885 0.3885 0.3885 2.7 0.8
#End of TTdata_39619-ICSD