
#(C) 2022 by FIZ Karlsruhe - Leibniz Institute for Information Infrastructure.  All rights reserved.
data_150913-ICSD
_database_code_ICSD 150913
_audit_creation_date 2006-04-01
_chemical_name_common 'Copper oxide (1/2)'
_chemical_formula_structural 'Cu O2'
_chemical_formula_sum 'Cu1 O2'
_exptl_crystal_density_diffrn 1.5
_citation_title

;
Structural modulation, hole distribution and hole-ordered structure of the
incommensurate composite crystal (Sr2 Cu2 O3)0.70 Cu O2
;
loop_
_citation_id
_citation_journal_full
_citation_year
_citation_journal_volume
_citation_page_first
_citation_page_last
_citation_journal_id_ASTM
primary 'Physical Review B: Condensed Matter and Materials Physics' 2003 68 1 15
PRBMDO
loop_
_citation_author_citation_id
_citation_author_name
primary 'Gotoh, Y.'
primary 'Yamaguchi, I.'
primary 'Takahashi, Y.'
primary 'Akimoto, J.'
primary 'Goto, M.'
primary 'Onoda, M.'
primary 'Fujino, H.'
primary 'Nagata, T.'
primary 'Akimitsu, J.'
_cell_length_a 13.406
_cell_length_b 2.7519
_cell_length_c 11.4794
_cell_angle_alpha 90.
_cell_angle_beta 90.
_cell_angle_gamma 90.
_cell_volume 423.5
_cell_formula_units_Z 4
_space_group_name_H-M_alt 'C m c m'
_space_group_IT_number 63
loop_
_space_group_symop_id
_space_group_symop_operation_xyz
1 '-x, y, -z+1/2'
2 '-x, -y, z+1/2'
3 '-x, y, z'
4 '-x, -y, -z'
5 'x, -y, z+1/2'
6 'x, y, -z+1/2'
7 'x, -y, -z'
8 'x, y, z'
9 '-x+1/2, y+1/2, -z+1/2'
10 '-x+1/2, -y+1/2, z+1/2'
11 '-x+1/2, y+1/2, z'
12 '-x+1/2, -y+1/2, -z'
13 'x+1/2, -y+1/2, z+1/2'
14 'x+1/2, y+1/2, -z+1/2'
15 'x+1/2, -y+1/2, -z'
16 'x+1/2, y+1/2, z'
loop_
_atom_type_symbol
_atom_type_oxidation_number
Cu0+ 0
O0+ 0
loop_
_atom_site_label
_atom_site_type_symbol
_atom_site_symmetry_multiplicity
_atom_site_Wyckoff_symbol
_atom_site_fract_x
_atom_site_fract_y
_atom_site_fract_z
_atom_site_U_iso_or_equiv
_atom_site_occupancy
Cu1 Cu0+ 4 c 0. 0.627 0.25 0.0126 1.
O1 O0+ 8 f 0. 0.122 0.138 0.013 1.
#End of TTdata_150913-ICSD