
#(C) 2022 by FIZ Karlsruhe - Leibniz Institute for Information Infrastructure.  All rights reserved.
data_186365-ICSD
_database_code_ICSD 186365
_audit_creation_date 2013-02-01
_chemical_name_common 'Dibismuth trioxide'
_chemical_formula_structural 'Bi2 O3'
_chemical_formula_sum 'Bi2 O3'
_chemical_name_structure_type La2O3#CaAl2Si2
_exptl_crystal_density_diffrn 9.43
_citation_title 'A new high-pressure phase of bismuth oxide'
loop_
_citation_id
_citation_journal_full
_citation_year
_citation_journal_volume
_citation_page_first
_citation_page_last
_citation_journal_id_ASTM
primary 'Materials Research Bulletin' 1998 33 289 292 MRBUAC
loop_
_citation_author_citation_id
_citation_author_name
primary 'Atou, T.'
primary 'Faqir, H.'
primary 'Kikuchi, M.'
primary 'Chiba, H.'
primary 'Syono, Y.'
_cell_length_a 3.878
_cell_length_b 3.878
_cell_length_c 6.303
_cell_angle_alpha 90.
_cell_angle_beta 90.
_cell_angle_gamma 120.
_cell_volume 82.09
_cell_formula_units_Z 1
_space_group_name_H-M_alt 'P -3 m 1'
_space_group_IT_number 164
loop_
_space_group_symop_id
_space_group_symop_operation_xyz
1 'x-y, -y, -z'
2 '-x, -x+y, -z'
3 'y, x, -z'
4 'x-y, x, -z'
5 'y, -x+y, -z'
6 '-x, -y, -z'
7 '-x+y, y, z'
8 'x, x-y, z'
9 '-y, -x, z'
10 '-x+y, -x, z'
11 '-y, x-y, z'
12 'x, y, z'
loop_
_atom_type_symbol
_atom_type_oxidation_number
Bi3+ 3
O2- -2
loop_
_atom_site_label
_atom_site_type_symbol
_atom_site_symmetry_multiplicity
_atom_site_Wyckoff_symbol
_atom_site_fract_x
_atom_site_fract_y
_atom_site_fract_z
_atom_site_B_iso_or_equiv
_atom_site_occupancy
Bi1 Bi3+ 2 d 0.33333 0.66667 0.245 . 1.
O1 O2- 1 a 0. 0. 0. . 1.
O2 O2- 2 d 0.33333 0.66667 0.645 . 1.
#End of TTdata_186365-ICSD