
#(C) 2022 by FIZ Karlsruhe - Leibniz Institute for Information Infrastructure.  All rights reserved.
data_164190-ICSD
_database_code_ICSD 164190
_audit_creation_date 2010-02-01
_chemical_name_common 'Dicopper divanadate - beta'
_chemical_formula_structural 'Cu2 (V2 O7)'
_chemical_formula_sum 'Cu2 O7 V2'
_chemical_name_structure_type Cu2V2O7(P1)
_chemical_name_mineral Ziesite
_exptl_crystal_density_diffrn 3.89
_citation_title

;
Electronic structure and magnetic properties of monoclinic beta-(Cu2 V2 O7): a
GGA+U study
;
loop_
_citation_id
_citation_journal_full
_citation_year
_citation_journal_volume
_citation_page_first
_citation_page_last
_citation_journal_id_ASTM
primary 'Physical Review B: Condensed Matter and Materials Physics' 2009 79 1 6
PRBMDO
loop_
_citation_author_citation_id
_citation_author_name
primary 'Yashima, M.'
primary 'Suzuki, R.O.'
_cell_length_a 5.5498
_cell_length_b 5.55
_cell_length_c 10.09
_cell_angle_alpha 103.999
_cell_angle_beta 104.006
_cell_angle_gamma 92.338
_cell_volume 290.96
_cell_formula_units_Z 2
_space_group_name_H-M_alt 'P 1'
_space_group_IT_number 1
loop_
_space_group_symop_id
_space_group_symop_operation_xyz
1 'x, y, z'
loop_
_atom_type_symbol
_atom_type_oxidation_number
Cu2+ 2
V5+ 5
O2- -2
loop_
_atom_site_label
_atom_site_type_symbol
_atom_site_symmetry_multiplicity
_atom_site_Wyckoff_symbol
_atom_site_fract_x
_atom_site_fract_y
_atom_site_fract_z
_atom_site_B_iso_or_equiv
_atom_site_occupancy
Cu1 Cu2+ 1 a 0.3804 0.3804 0.472 . 1.
Cu2 Cu2+ 1 a 0. 0. 0. . 1.
Cu3 Cu2+ 1 a 0.2332 0.5276 0.972 . 1.
Cu4 Cu2+ 1 a 0.8528 0.1472 0.5 . 1.
V1 V5+ 1 a 0.1807 0.7717 0.699 . 1.
V2 V5+ 1 a 0.6087 0.1997 0.773 . 1.
V3 V5+ 1 a 0.0525 0.7559 0.273 . 1.
V4 V5+ 1 a 0.6245 0.3279 0.199 . 1.
O1 O2- 1 a 0.4812 0.8992 0.736 . 1.
O2 O2- 1 a 0.752 0.6284 0.236 . 1.
O3 O2- 1 a 0.9797 0.9327 0.6198 . 1.
O4 O2- 1 a 0.4477 0.4007 0.8522 . 1.
O5 O2- 1 a 0.2535 0.5949 0.3522 . 1.
O6 O2- 1 a 0.7855 0.1269 0.1198 . 1.
O7 O2- 1 a 0.151 0.4744 0.5884 . 1.
O8 O2- 1 a 0.906 0.2294 0.8836 . 1.
O9 O2- 1 a 0.0822 0.0532 0.3836 . 1.
O10 O2- 1 a 0.3272 0.2982 0.0884 . 1.
O11 O2- 1 a 0.1012 0.7508 0.8569 . 1.
O12 O2- 1 a 0.6296 0.2792 0.6151 . 1.
O13 O2- 1 a 0.132 0.7768 0.1151 . 1.
O14 O2- 1 a 0.6036 0.2484 0.3569 . 1.
#End of TTdata_164190-ICSD