
#(C) 2022 by FIZ Karlsruhe - Leibniz Institute for Information Infrastructure.  All rights reserved.
data_257272-ICSD
_database_code_ICSD 257272
_audit_creation_date 2018-02-01
_chemical_name_common 'Vanadium(III) oxide'
_chemical_formula_structural 'V2 O3'
_chemical_formula_sum 'O3 V2'
_chemical_name_structure_type Bixbyite#(MnFe)O3
_exptl_crystal_density_diffrn 4.81
_citation_title

;
Synthesis and characterization of metastable transition metal oxides and oxide
nitrides
;
loop_
_citation_id
_citation_journal_full
_citation_year
_citation_journal_volume
_citation_page_first
_citation_page_last
_citation_journal_id_ASTM
primary 'Zeitschrift fuer Kristallographie - Crystalline Materials' 2017 232 3
14 ZKCMAJ
loop_
_citation_author_citation_id
_citation_author_name
primary 'Luedtke, Tobias'
primary 'Weber, Dominik'
primary 'Schmidt, Alexander'
primary 'Mueller, Alexander'
primary 'Reimann, Christoph'
primary 'Becker, Nils'
primary 'Bredow, Thomas'
primary 'Dronskowski, Richard'
primary 'Ressler, Thorsten'
primary 'Lerch, Martin'
_cell_length_a 9.393
_cell_length_b 9.393
_cell_length_c 9.393
_cell_angle_alpha 90.
_cell_angle_beta 90.
_cell_angle_gamma 90.
_cell_volume 828.73
_cell_formula_units_Z 16
_space_group_name_H-M_alt 'I a -3'
_space_group_IT_number 206
loop_
_space_group_symop_id
_space_group_symop_operation_xyz
1 '-z, x, y+1/2'
2 'z, x+1/2, -y'
3 'z+1/2, -x, y'
4 '-z, -x, -y'
5 'y+1/2, -z, x'
6 '-y, z, x+1/2'
7 'y, z+1/2, -x'
8 '-y, -z, -x'
9 'x, y+1/2, -z'
10 'x+1/2, -y, z'
11 '-x, y, z+1/2'
12 '-x, -y, -z'
13 'z, -x, -y+1/2'
14 '-z, -x+1/2, y'
15 '-z+1/2, x, -y'
16 'z, x, y'
17 '-y+1/2, z, -x'
18 'y, -z, -x+1/2'
19 '-y, -z+1/2, x'
20 'y, z, x'
21 '-x, -y+1/2, z'
22 '-x+1/2, y, -z'
23 'x, -y, -z+1/2'
24 'x, y, z'
25 '-z+1/2, x+1/2, y'
26 'z+1/2, x, -y+1/2'
27 'z, -x+1/2, y+1/2'
28 '-z+1/2, -x+1/2, -y+1/2'
29 'y, -z+1/2, x+1/2'
30 '-y+1/2, z+1/2, x'
31 'y+1/2, z, -x+1/2'
32 '-y+1/2, -z+1/2, -x+1/2'
33 'x+1/2, y, -z+1/2'
34 'x, -y+1/2, z+1/2'
35 '-x+1/2, y+1/2, z'
36 '-x+1/2, -y+1/2, -z+1/2'
37 'z+1/2, -x+1/2, -y'
38 '-z+1/2, -x, y+1/2'
39 '-z, x+1/2, -y+1/2'
40 'z+1/2, x+1/2, y+1/2'
41 '-y, z+1/2, -x+1/2'
42 'y+1/2, -z+1/2, -x'
43 '-y+1/2, -z, x+1/2'
44 'y+1/2, z+1/2, x+1/2'
45 '-x+1/2, -y, z+1/2'
46 '-x, y+1/2, -z+1/2'
47 'x+1/2, -y+1/2, -z'
48 'x+1/2, y+1/2, z+1/2'
loop_
_atom_type_symbol
_atom_type_oxidation_number
V3+ 3
O2- -2
loop_
_atom_site_label
_atom_site_type_symbol
_atom_site_symmetry_multiplicity
_atom_site_Wyckoff_symbol
_atom_site_fract_x
_atom_site_fract_y
_atom_site_fract_z
_atom_site_B_iso_or_equiv
_atom_site_occupancy
V1 V3+ 8 a 0. 0. 0. 0.7 1.
V2 V3+ 24 d 0.28174 0. 0.25 0.77 1.
O1 O2- 48 e 0.0954 0.3578 0.1281 0.77 1.
#End of TTdata_257272-ICSD