
#(C) 2022 by FIZ Karlsruhe - Leibniz Institute for Information Infrastructure.  All rights reserved.
data_168567-ICSD
_database_code_ICSD 168567
_audit_creation_date 2011-02-01
_audit_update_record 2013-08-01
_chemical_name_common 'Dibismuth trioxide - alpha, nanometric'
_chemical_formula_structural 'Bi2 O3'
_chemical_formula_sum 'Bi2 O3'
_chemical_name_structure_type Bi2O3
_exptl_crystal_density_diffrn 9.38
_diffrn_ambient_temperature 293.
_citation_title 'Room-temperature synthesis of nanometric alpha - Bi2 O3'
loop_
_citation_id
_citation_journal_full
_citation_year
_citation_journal_volume
_citation_page_first
_citation_page_last
_citation_journal_id_ASTM
primary 'Materials Letters' 2010 64 2247 2250 MLETDJ
loop_
_citation_author_citation_id
_citation_author_name
primary 'Prekajski, M.'
primary 'Kremenovic, A.'
primary 'Babic, B.'
primary 'Rosic, M.'
primary 'Matovic, B.'
primary 'Radosavljevic Mihajlovic, A.'
primary 'Radovic, M.'
_cell_length_a 5.846
_cell_length_b 8.1634
_cell_length_c 7.5079
_cell_angle_alpha 90.
_cell_angle_beta 112.988
_cell_angle_gamma 90.
_cell_volume 329.85
_cell_formula_units_Z 4
_space_group_name_H-M_alt 'P 1 21/c 1'
_space_group_IT_number 14
loop_
_space_group_symop_id
_space_group_symop_operation_xyz
1 'x, -y+1/2, z+1/2'
2 '-x, -y, -z'
3 '-x, y+1/2, -z+1/2'
4 'x, y, z'
loop_
_atom_type_symbol
_atom_type_oxidation_number
Bi3+ 3
O2- -2
loop_
_atom_site_label
_atom_site_type_symbol
_atom_site_symmetry_multiplicity
_atom_site_Wyckoff_symbol
_atom_site_fract_x
_atom_site_fract_y
_atom_site_fract_z
_atom_site_B_iso_or_equiv
_atom_site_occupancy
Bi1 Bi3+ 4 e 0.5255 0.3164 0.3623 0.75 1.
Bi2 Bi3+ 4 e 0.0474 0.0425 0.2763 0.75 1.
O1 O2- 4 e 0.786 0.3 0.193 0.75 1.
O2 O2- 4 e 0.258 0.456 0.114 0.75 1.
O3 O2- 4 e 0.271 0.043 0.014 0.75 1.
#End of TTdata_168567-ICSD