
#(C) 2022 by FIZ Karlsruhe - Leibniz Institute for Information Infrastructure.  All rights reserved.
data_59961-ICSD
_database_code_ICSD 59961
_audit_creation_date 2005-10-01
_audit_update_record 2012-02-01
_chemical_name_common 'Divanadium pentoxide - beta'
_chemical_formula_structural 'V2 O5'
_chemical_formula_sum 'O5 V2'
_chemical_name_structure_type V2O5(P21/m)
_exptl_crystal_density_diffrn 3.78
_citation_title
'Structure of a high-pressure phase of vanadium pentoxide, beta-V2 O5'
loop_
_citation_id
_citation_journal_full
_citation_year
_citation_journal_volume
_citation_page_first
_citation_page_last
_citation_journal_id_ASTM
primary 'Acta Crystallographica, Section B: Structural Science' 2004 60 375 381
ASBSDK
loop_
_citation_author_citation_id
_citation_author_name
primary 'Filonenko, V.P.'
primary 'Sundberg, M.'
primary 'Werner, P.E.'
primary 'Zibrov, I.P.'
_cell_length_a 6.2846
_cell_length_b 3.5718
_cell_length_c 7.114
_cell_angle_alpha 90.
_cell_angle_beta 90.069
_cell_angle_gamma 90.
_cell_volume 159.69
_cell_formula_units_Z 2
_space_group_name_H-M_alt 'P 1 21/m 1'
_space_group_IT_number 11
loop_
_space_group_symop_id
_space_group_symop_operation_xyz
1 'x, -y+1/2, z'
2 '-x, -y, -z'
3 '-x, y+1/2, -z'
4 'x, y, z'
loop_
_atom_type_symbol
_atom_type_oxidation_number
V5+ 5
O2- -2
loop_
_atom_site_label
_atom_site_type_symbol
_atom_site_symmetry_multiplicity
_atom_site_Wyckoff_symbol
_atom_site_fract_x
_atom_site_fract_y
_atom_site_fract_z
_atom_site_U_iso_or_equiv
_atom_site_occupancy
V1 V5+ 2 e 0.1897 0.25 0.4002 0.014 1.
V2 V5+ 2 e 0.7443 0.25 0.2227 0.015 1.
O1 O2- 2 e 0.4374 0.25 0.3241 0.0053 1.
O2 O2- 2 e 0.8536 0.25 0.5307 0.0127 1.
O3 O2- 2 e 0.6752 0.25 0.0086 0.0136 1.
O4 O2- 2 e 0.0424 0.25 0.1988 0.0084 1.
O5 O2- 2 e 0.2627 0.25 0.6992 0.0048 1.
#End of TTdata_59961-ICSD