
#(C) 2022 by FIZ Karlsruhe - Leibniz Institute for Information Infrastructure.  All rights reserved.
data_92860-ICSD
_database_code_ICSD 92860
_audit_creation_date 2003-04-01
_chemical_name_common 'Bismuth copper oxide (2.08/0.84/4)'
_chemical_formula_structural 'Bi2.08 Cu0.84 O4'
_chemical_formula_sum 'Bi2.08 Cu0.84 O4'
_chemical_name_structure_type CuBi2O4
_exptl_crystal_density_diffrn 8.61
_citation_title

;
Local perturbation in Bi2 Cu O4: hydrothermal synthesis, crystal structure and
characterization of the new Bi2 (Cu1-2x Mx) O4 (M = Bi, Pb)
;
loop_
_citation_id
_citation_journal_full
_citation_year
_citation_journal_volume
_citation_page_first
_citation_page_last
_citation_journal_id_ASTM
primary 'Chemistry of Materials' 2001 13 543 551 CMATEX
loop_
_citation_author_citation_id
_citation_author_name
primary 'Henry, N.'
primary 'Mentre, O.'
primary 'Boivin, J.C.'
primary 'Abraham, F.'
_cell_length_a 8.58
_cell_length_b 8.58
_cell_length_c 5.788
_cell_angle_alpha 90.
_cell_angle_beta 90.
_cell_angle_gamma 90.
_cell_volume 426.09
_cell_formula_units_Z 4
_space_group_name_H-M_alt 'P 4/n c c Z'
_space_group_IT_number 130
loop_
_space_group_symop_id
_space_group_symop_operation_xyz
1 'y+1/2, x+1/2, -z+1/2'
2 '-y, x+1/2, -z'
3 'y+1/2, -x, -z'
4 '-y, -x, -z+1/2'
5 'x+1/2, y+1/2, -z'
6 '-x, y+1/2, -z+1/2'
7 'x+1/2, -y, -z+1/2'
8 '-x, -y, -z'
9 '-y+1/2, -x+1/2, z+1/2'
10 'y, -x+1/2, z'
11 '-y+1/2, x, z'
12 'y, x, z+1/2'
13 '-x+1/2, -y+1/2, z'
14 'x, -y+1/2, z+1/2'
15 '-x+1/2, y, z+1/2'
16 'x, y, z'
loop_
_atom_type_symbol
_atom_type_oxidation_number
Bi3+ 3
Cu2+ 2.095
O2- -2
loop_
_atom_site_label
_atom_site_type_symbol
_atom_site_symmetry_multiplicity
_atom_site_Wyckoff_symbol
_atom_site_fract_x
_atom_site_fract_y
_atom_site_fract_z
_atom_site_U_iso_or_equiv
_atom_site_occupancy
Bi1 Bi3+ 8 f 0.419 0.581 0.25 0.013 1.
Bi2 Bi3+ 4 c 0.25 0.25 0.354 0.05 0.08
Cu1 Cu2+ 4 c 0.25 0.25 0.079 0.009 0.84
O1 O2- 16 g 0.05 0.142 0.091 0.015 1.
loop_
_atom_site_aniso_label
_atom_site_aniso_type_symbol
_atom_site_aniso_U_11
_atom_site_aniso_U_22
_atom_site_aniso_U_33
_atom_site_aniso_U_12
_atom_site_aniso_U_13
_atom_site_aniso_U_23
Bi1 Bi3+ 0.014 0.014 0.013 0.004 0.001 0.001
Bi2 Bi3+ 0.01 0.01 0.21 0. 0. 0.
Cu1 Cu2+ 0.01 0.01 0.006 0. 0. 0.
O1 O2- 0.015 0.011 0.019 0.001 0.009 0.004
#End of TTdata_92860-ICSD