
#(C) 2022 by FIZ Karlsruhe - Leibniz Institute for Information Infrastructure.  All rights reserved.
data_19046-ICSD
_database_code_ICSD 19046
_audit_creation_date 1980-01-01
_audit_update_record 1993-07-05
_chemical_name_common 'Copper(I) vanadium oxide - II'
_chemical_formula_structural 'Cu V O3'
_chemical_formula_sum 'Cu1 O3 V1'
_chemical_name_structure_type Ilmenite#TiFeO3
_exptl_crystal_density_diffrn 5.38
_citation_title
'The crystal structure of Cu V O3 (II), a high-pressure Ilmenite phase'
loop_
_citation_id
_citation_journal_full
_citation_year
_citation_journal_volume
_citation_page_first
_citation_page_last
_citation_journal_id_ASTM
primary 'Journal of Solid State Chemistry' 1973 7 163 168 JSSCBI
loop_
_citation_author_citation_id
_citation_author_name
primary 'Rea, J.R.'
primary 'Kostiner, E.'
_cell_length_a 4.966
_cell_length_b 4.966
_cell_length_c 14.0845
_cell_angle_alpha 90.
_cell_angle_beta 90.
_cell_angle_gamma 120.
_cell_volume 300.81
_cell_formula_units_Z 6
_space_group_name_H-M_alt 'R -3 H'
_space_group_IT_number 148
loop_
_space_group_symop_id
_space_group_symop_operation_xyz
1 'x-y, x, -z'
2 'y, -x+y, -z'
3 '-x, -y, -z'
4 '-x+y, -x, z'
5 '-y, x-y, z'
6 'x, y, z'
7 'x-y+2/3, x+1/3, -z+1/3'
8 'y+2/3, -x+y+1/3, -z+1/3'
9 '-x+2/3, -y+1/3, -z+1/3'
10 '-x+y+2/3, -x+1/3, z+1/3'
11 '-y+2/3, x-y+1/3, z+1/3'
12 'x+2/3, y+1/3, z+1/3'
13 'x-y+1/3, x+2/3, -z+2/3'
14 'y+1/3, -x+y+2/3, -z+2/3'
15 '-x+1/3, -y+2/3, -z+2/3'
16 '-x+y+1/3, -x+2/3, z+2/3'
17 '-y+1/3, x-y+2/3, z+2/3'
18 'x+1/3, y+2/3, z+2/3'
loop_
_atom_type_symbol
_atom_type_oxidation_number
Cu1+ 1.5
V4+ 4.5
O2- -2
loop_
_atom_site_label
_atom_site_type_symbol
_atom_site_symmetry_multiplicity
_atom_site_Wyckoff_symbol
_atom_site_fract_x
_atom_site_fract_y
_atom_site_fract_z
_atom_site_B_iso_or_equiv
_atom_site_occupancy
Cu1 Cu1+ 6 c 0. 0. 0.35817 . 1.
V1 V4+ 6 c 0. 0. 0.14529 . 1.
O1 O2- 18 f 0.34133 0.03712 0.09017 . 1.
loop_
_atom_site_aniso_label
_atom_site_aniso_type_symbol
_atom_site_aniso_B_11
_atom_site_aniso_B_22
_atom_site_aniso_B_33
_atom_site_aniso_B_12
_atom_site_aniso_B_13
_atom_site_aniso_B_23
Cu1 Cu1+ 0.59 0.59 1.02 0.295 0. 0.
V1 V4+ 0.44 0.44 0.65 0.22 0. 0.
O1 O2- 0.65 0.43 0.74 0.27 0.12 0.04
#End of TTdata_19046-ICSD