
#(C) 2022 by FIZ Karlsruhe - Leibniz Institute for Information Infrastructure.  All rights reserved.
data_4139-ICSD
_database_code_ICSD 4139
_audit_creation_date 1980-01-01
_audit_update_record 2000-07-15
_chemical_name_common 'Copper vanadium oxide (4/2.2/9.4)'
_chemical_formula_structural 'Cu4 V2.15 O9.38'
_chemical_formula_sum 'Cu4 O9.38 V2.15'
_exptl_crystal_density_diffrn 4.38
_citation_title 'Ueber ein neues Kupfervanadat Cu4 V2.15 O9.38'
loop_
_citation_id
_citation_journal_full
_citation_year
_citation_journal_volume
_citation_page_first
_citation_page_last
_citation_journal_id_ASTM
primary

;
Zeitschrift fuer Naturforschung, Teil B: Anorganische Chemie, Organische
Chemie, Biochemie, Biophysik, Biologie
; 1975 30 175 178 ZENBAX
loop_
_citation_author_citation_id
_citation_author_name
primary 'Christian, H.P.'
primary 'Mueller Buschbaum, H.'
_cell_length_a 6.055
_cell_length_b 8.564
_cell_length_c 15.021
_cell_angle_alpha 90.
_cell_angle_beta 90.
_cell_angle_gamma 90.
_cell_volume 778.91
_cell_formula_units_Z 4
_space_group_name_H-M_alt 'P 21 21 21'
_space_group_IT_number 19
loop_
_space_group_symop_id
_space_group_symop_operation_xyz
1 '-x, y+1/2, -z+1/2'
2 'x+1/2, -y+1/2, -z'
3 '-x+1/2, -y, z+1/2'
4 'x, y, z'
loop_
_atom_type_symbol
_atom_type_oxidation_number
Cu2+ 2
V5+ 5
O2- -2
loop_
_atom_site_label
_atom_site_type_symbol
_atom_site_symmetry_multiplicity
_atom_site_Wyckoff_symbol
_atom_site_fract_x
_atom_site_fract_y
_atom_site_fract_z
_atom_site_B_iso_or_equiv
_atom_site_occupancy
Cu1 Cu2+ 4 a 0.25 0.105 0.2157 . 1.
Cu2 Cu2+ 4 a 0.5239 0.3825 0.1411 . 1.
Cu3 Cu2+ 4 a 0.0295 0.3808 0.1364 . 1.
Cu4 Cu2+ 4 a 0.2277 0.1647 0.4268 . 1.
V1 V5+ 4 a 0.2131 0.5636 0.4201 . 1.
V2 V5+ 4 a 0.2257 0.2758 0.6553 . 1.
V3 V5+ 4 a 0.3092 0.1169 0.041 . 0.15
O1 O2- 4 a 0.251 0.12 0.727 . 0.938
O2 O2- 4 a 0.78 0.437 0.062 . 0.938
O3 O2- 4 a 0.224 0.211 0.553 . 0.938
O4 O2- 4 a 0.028 0.151 0.12 . 0.938
O5 O2- 4 a 0.481 0.111 0.326 . 0.938
O6 O2- 4 a 0.549 0.159 0.124 . 0.938
O7 O2- 4 a 0.04 0.608 0.17 . 0.938
O8 O2- 4 a 0.226 0.374 0.387 . 0.938
O9 O2- 4 a 0.281 0.424 0.03 . 0.938
O10 O2- 4 a 0.281 0.332 0.216 . 0.938
#End of TTdata_4139-ICSD