
#(C) 2022 by FIZ Karlsruhe - Leibniz Institute for Information Infrastructure.  All rights reserved.
data_65756-ICSD
_database_code_ICSD 65756
_audit_creation_date 1990-06-08
_chemical_name_common 'Copper vanadium oxide (.26/2/5)'
_chemical_formula_structural 'Cu.261 (V2 O5)'
_chemical_formula_sum 'Cu0.261 O5 V2'
_chemical_name_structure_type NaxV2O5
_exptl_crystal_density_diffrn 3.72
_diffrn_ambient_temperature 296.
_citation_title
'Die Struktur der Kupfer-Vanadiumbronze Cu.261 V2 O5: Eine Verfeinerung'
loop_
_citation_id
_citation_journal_full
_citation_year
_citation_journal_volume
_citation_page_first
_citation_page_last
_citation_journal_id_ASTM
primary 'Acta Crystallographica, Section C: Crystal Structure Communications'
1989 45 1845 1847 ACSCEE
loop_
_citation_author_citation_id
_citation_author_name
primary 'Kato, K.'
primary 'Takayama Muromachi, E.'
primary 'Kanke, Y.'
_cell_length_a 15.2403
_cell_length_b 3.6145
_cell_length_c 10.1009
_cell_angle_alpha 90.
_cell_angle_beta 107.25
_cell_angle_gamma 90.
_cell_volume 531.39
_cell_formula_units_Z 6
_space_group_name_H-M_alt 'C 1 2/m 1'
_space_group_IT_number 12
loop_
_space_group_symop_id
_space_group_symop_operation_xyz
1 '-x, y, -z'
2 '-x, -y, -z'
3 'x, -y, z'
4 'x, y, z'
5 '-x+1/2, y+1/2, -z'
6 '-x+1/2, -y+1/2, -z'
7 'x+1/2, -y+1/2, z'
8 'x+1/2, y+1/2, z'
loop_
_atom_type_symbol
_atom_type_oxidation_number
V5+ 5
V4+ 4.61
O2- -2
Cu1+ 1
loop_
_atom_site_label
_atom_site_type_symbol
_atom_site_symmetry_multiplicity
_atom_site_Wyckoff_symbol
_atom_site_fract_x
_atom_site_fract_y
_atom_site_fract_z
_atom_site_B_iso_or_equiv
_atom_site_occupancy
V1 V5+ 4 i 0.33494 0. 0.09616 . 1.
V2 V5+ 4 i 0.114 0. 0.11994 . 1.
V3 V4+ 4 i 0.28681 0. 0.40681 . 1.
O1 O2- 2 a 0. 0. 0. . 1.
O2 O2- 4 i 0.81322 0. 0.05073 . 1.
O3 O2- 4 i 0.63291 0. 0.08138 . 1.
O4 O2- 4 i 0.43403 0. 0.20721 . 1.
O5 O2- 4 i 0.26079 0. 0.22154 . 1.
O6 O2- 4 i 0.09979 0. 0.27175 . 1.
O7 O2- 4 i 0.2452 0. 0.57583 . 1.
O8 O2- 4 i 0.39622 0. 0.46063 . 1.
Cu1 Cu1+ 4 i 0.52952 0. 0.361 . 0.3915
loop_
_atom_site_aniso_label
_atom_site_aniso_type_symbol
_atom_site_aniso_beta_11
_atom_site_aniso_beta_22
_atom_site_aniso_beta_33
_atom_site_aniso_beta_12
_atom_site_aniso_beta_13
_atom_site_aniso_beta_23
V1 V5+ 0.000707 0.00697 0.00151 0. 0.000366 0.
V2 V5+ 0.001086 0.00691 0.00189 0. 0.000771 0.
V3 V4+ 0.001511 0.00954 0.00137 0. 0.000708 0.
O1 O2- 0.00064 0.0146 0.00326 0. -0.00008 0.
O2 O2- 0.00102 0.0082 0.0021 0. 0.00051 0.
O3 O2- 0.00087 0.0086 0.0017 0. 0.00045 0.
O4 O2- 0.0009 0.0281 0.00239 0. -0.00002 0.
O5 O2- 0.00084 0.0135 0.00137 0. 0.00036 0.
O6 O2- 0.00149 0.0333 0.00208 0. 0.00086 0.
O7 O2- 0.00244 0.0091 0.00199 0. 0.00131 0.
O8 O2- 0.00152 0.0488 0.00258 0. 0.00003 0.
Cu1 Cu1+ 0.00277 0.212 0.0034 0. -0.0027 0.
#End of TTdata_65756-ICSD