
#(C) 2022 by FIZ Karlsruhe - Leibniz Institute for Information Infrastructure.  All rights reserved.
data_92367-ICSD
_database_code_ICSD 92367
_audit_creation_date 2002-10-01
_chemical_name_common 'Copper oxide'
_chemical_formula_structural 'Cu O'
_chemical_formula_sum 'Cu1 O1'
_chemical_name_structure_type CuO(mS8)
_exptl_crystal_density_diffrn 6.53
_diffrn_ambient_temperature 220.
_citation_title 'Structural study of Cu O at low temperatures'
loop_
_citation_id
_citation_journal_full
_citation_year
_citation_journal_volume
_citation_page_first
_citation_page_last
_citation_journal_id_ASTM
primary 'Transaction of the Materials Research Society of Japan' 2000 25 1199
1202 TMRJE3
loop_
_citation_author_citation_id
_citation_author_name
primary 'Yamada, H.'
primary 'Soejima, Y.'
primary 'Zheng, X.G.'
primary 'Kawaminami, M.'
_cell_length_a 4.683
_cell_length_b 3.4203
_cell_length_c 5.1245
_cell_angle_alpha 90.
_cell_angle_beta 99.707
_cell_angle_gamma 90.
_cell_volume 80.91
_cell_formula_units_Z 4
_space_group_name_H-M_alt 'C 1 2/c 1'
_space_group_IT_number 15
loop_
_space_group_symop_id
_space_group_symop_operation_xyz
1 'x, -y, z+1/2'
2 '-x, -y, -z'
3 '-x, y, -z+1/2'
4 'x, y, z'
5 'x+1/2, -y+1/2, z+1/2'
6 '-x+1/2, -y+1/2, -z'
7 '-x+1/2, y+1/2, -z+1/2'
8 'x+1/2, y+1/2, z'
loop_
_atom_type_symbol
_atom_type_oxidation_number
Cu2+ 2
O2- -2
loop_
_atom_site_label
_atom_site_type_symbol
_atom_site_symmetry_multiplicity
_atom_site_Wyckoff_symbol
_atom_site_fract_x
_atom_site_fract_y
_atom_site_fract_z
_atom_site_B_iso_or_equiv
_atom_site_occupancy
Cu1 Cu2+ 4 c 0.25 0.25 0. . 1.
O1 O2- 4 e 0. 0.083 0.25 . 1.
#End of TTdata_92367-ICSD