
#(C) 2022 by FIZ Karlsruhe - Leibniz Institute for Information Infrastructure.  All rights reserved.
data_195-ICSD
_database_code_ICSD 195
_audit_creation_date 2012-02-01
_audit_update_record 2018-08-01
_chemical_name_common 'Vanadium oxide (3/5)'
_chemical_formula_structural 'V3 O5'
_chemical_formula_sum 'O5 V3'
_chemical_name_structure_type V3O5
_exptl_crystal_density_diffrn 4.64
_citation_title 'Crystal structures of VnO2n-1(2<=n<=7)'
loop_
_citation_id
_citation_journal_full
_citation_year
_citation_journal_volume
_citation_page_first
_citation_page_last
_citation_journal_id_ASTM
primary 'Journal of Solid State Chemistry' 1976 17 407 424 JSSCBI
loop_
_citation_author_citation_id
_citation_author_name
primary 'Horiuchi, Hiroyuki'
primary 'Morimoto, Nobuo'
primary 'Tokonami, Masayasu'
_cell_length_a 9.854
_cell_length_b 5.04
_cell_length_c 7.134
_cell_angle_alpha 90.
_cell_angle_beta 109.926
_cell_angle_gamma 90.
_cell_volume 333.09
_cell_formula_units_Z 4
_space_group_name_H-M_alt 'P 1 21/c 1'
_space_group_IT_number 14
loop_
_space_group_symop_id
_space_group_symop_operation_xyz
1 'x, -y+1/2, z+1/2'
2 '-x, -y, -z'
3 '-x, y+1/2, -z+1/2'
4 'x, y, z'
loop_
_atom_type_symbol
_atom_type_oxidation_number
V3+ 3
V4+ 4
O2- -2
loop_
_atom_site_label
_atom_site_type_symbol
_atom_site_symmetry_multiplicity
_atom_site_Wyckoff_symbol
_atom_site_fract_x
_atom_site_fract_y
_atom_site_fract_z
_atom_site_B_iso_or_equiv
_atom_site_occupancy
V1 V3+ 4 e 0.3805 0.2559 0.1594 0.33 1.
V2 V3+ 4 e 0.1193 0.2461 0.3404 0.32 1.
V3 V4+ 4 e 0.2474 0.748 0.2483 0.35 1.
O1 O2- 4 e 0.5527 0.4071 0.2138 1.13 1.
O2 O2- 4 e 0.0602 0.5962 0.221 0.3 1.
O3 O2- 4 e 0.1742 0.0929 0.114 0.56 1.
O4 O2- 4 e 0.3317 0.4053 0.39 0.66 1.
O5 O2- 4 e 0.2515 0.556 0.0024 0.77 1.
#End of TTdata_195-ICSD