
#(C) 2022 by FIZ Karlsruhe - Leibniz Institute for Information Infrastructure.  All rights reserved.
data_71860-ICSD
_database_code_ICSD 71860
_audit_creation_date 1993-08-22
_chemical_name_common 'Tristrontium dialuminium oxide'
_chemical_formula_structural 'Sr3 Al2 O6'
_chemical_formula_sum 'Al2 O6 Sr3'
_chemical_name_structure_type Ca9Al6O18
_exptl_crystal_density_diffrn 4.13
_diffrn_ambient_temperature 295.
_citation_title

;
Refinement of the structures of Sr3Al2O6 and the hydrogarnet Sr3Al2(O4D4)3 by
Rietveld analysis of neutron powder diffraction data
;
loop_
_citation_id
_citation_journal_full
_citation_year
_citation_journal_volume
_citation_page_first
_citation_page_last
_citation_journal_id_ASTM
primary 'Acta Crystallographica, Section C: Crystal Structure Communications'
1992 48 414 419 ACSCEE
loop_
_citation_author_citation_id
_citation_author_name
primary 'Chakoumakos, B.C.'
primary 'Lager, G.A.'
primary 'Fernandez-Baca, J.A.'
_cell_length_a 15.8556
_cell_length_b 15.8556
_cell_length_c 15.8556
_cell_angle_alpha 90.
_cell_angle_beta 90.
_cell_angle_gamma 90.
_cell_volume 3986.1
_cell_formula_units_Z 24
_space_group_name_H-M_alt 'P a -3'
_space_group_IT_number 205
loop_
_space_group_symop_id
_space_group_symop_operation_xyz
1 '-z+1/2, x+1/2, y'
2 'z+1/2, x, -y+1/2'
3 'z, -x+1/2, y+1/2'
4 '-z, -x, -y'
5 'y, -z+1/2, x+1/2'
6 '-y+1/2, z+1/2, x'
7 'y+1/2, z, -x+1/2'
8 '-y, -z, -x'
9 'x+1/2, y, -z+1/2'
10 'x, -y+1/2, z+1/2'
11 '-x+1/2, y+1/2, z'
12 '-x, -y, -z'
13 'z+1/2, -x+1/2, -y'
14 '-z+1/2, -x, y+1/2'
15 '-z, x+1/2, -y+1/2'
16 'z, x, y'
17 '-y, z+1/2, -x+1/2'
18 'y+1/2, -z+1/2, -x'
19 '-y+1/2, -z, x+1/2'
20 'y, z, x'
21 '-x+1/2, -y, z+1/2'
22 '-x, y+1/2, -z+1/2'
23 'x+1/2, -y+1/2, -z'
24 'x, y, z'
loop_
_atom_type_symbol
_atom_type_oxidation_number
Sr2+ 2
Al3+ 3
O2- -2
loop_
_atom_site_label
_atom_site_type_symbol
_atom_site_symmetry_multiplicity
_atom_site_Wyckoff_symbol
_atom_site_fract_x
_atom_site_fract_y
_atom_site_fract_z
_atom_site_B_iso_or_equiv
_atom_site_occupancy
Sr1 Sr2+ 4 a 0. 0. 0. 0.5 1.
Sr2 Sr2+ 4 b 0.5 0.5 0.5 0.6 1.
Sr3 Sr2+ 8 c 0.2519 0.2519 0.2519 0.1 1.
Sr4 Sr2+ 8 c 0.3759 0.3759 0.3759 0.47 1.
Sr5 Sr2+ 24 d 0.1319 0.1343 0.375 0.71 1.
Sr6 Sr2+ 24 d 0.1247 0.3799 0.3855 0.39 1.
Al1 Al3+ 24 d 0.0168 0.0193 0.2519 0.22 1.
Al2 Al3+ 24 d 0.0041 0.2381 0.2345 0.35 1.
O1 O2- 24 d 0.0028 0.2622 0.1257 0.63 1.
O2 O2- 24 d 0.1295 0.2437 0.4928 0.59 1.
O3 O2- 24 d 0.1002 0.2704 0.2769 0.7 1.
O4 O2- 24 d 0.2352 0.4063 0.28 0.48 1.
O5 O2- 24 d 0.0256 0.4806 0.154 0.77 1.
O6 O2- 24 d 0.0176 0.4832 0.3461 0.68 1.
#End of TTdata_71860-ICSD