
#(C) 2022 by FIZ Karlsruhe - Leibniz Institute for Information Infrastructure.  All rights reserved.
data_94485-ICSD
_database_code_ICSD 94485
_audit_creation_date 2003-10-01
_chemical_name_common 'Aluminium oxide - kappa'
_chemical_formula_structural 'Al2 O3'
_chemical_formula_sum 'Al2 O3'
_chemical_name_structure_type AlFeO3#FeGaO3
_exptl_crystal_density_diffrn 3.77
_citation_title 'A new Rietveld refinement of kappa-(Al2 O3)'
loop_
_citation_id
_citation_journal_full
_citation_year
_citation_journal_volume
_citation_page_first
_citation_page_last
_citation_journal_id_ASTM
primary 'Zeitschrift fuer Kristallographie' 2001 216 409 412 ZEKRDZ
loop_
_citation_author_citation_id
_citation_author_name
primary 'Smrcok, L.'
primary 'Langer, V.'
primary 'Halvarsson, M.'
primary 'Ruppi, S.'
_cell_length_a 4.834
_cell_length_b 8.3096
_cell_length_c 8.9353
_cell_angle_alpha 90.
_cell_angle_beta 90.
_cell_angle_gamma 90.
_cell_volume 358.92
_cell_formula_units_Z 8
_space_group_name_H-M_alt 'P n a 21'
_space_group_IT_number 33
loop_
_space_group_symop_id
_space_group_symop_operation_xyz
1 'x+1/2, -y+1/2, z'
2 '-x+1/2, y+1/2, z+1/2'
3 '-x, -y, z+1/2'
4 'x, y, z'
loop_
_atom_type_symbol
_atom_type_oxidation_number
Al3+ 3
O2- -2
loop_
_atom_site_label
_atom_site_type_symbol
_atom_site_symmetry_multiplicity
_atom_site_Wyckoff_symbol
_atom_site_fract_x
_atom_site_fract_y
_atom_site_fract_z
_atom_site_B_iso_or_equiv
_atom_site_occupancy
Al1 Al3+ 4 a 0.3222 0.3383 0.3534 3.9 1.
Al2 Al3+ 4 a 0.3307 0.0245 0.1225 2.7 1.
Al3 Al3+ 4 a 0.1862 0.8502 0.4287 1.3 1.
Al4 Al3+ 4 a 0.1844 0.1576 0.6266 4.2 1.
O1 O2- 4 a 0.0204 0.3529 0.5023 2.9 1.
O2 O2- 4 a 0.4915 0.4911 0.495 3.4 1.
O3 O2- 4 a 0.1627 0.1632 0.2571 0.6 1.
O4 O2- 4 a 0.1544 0.4953 0.2344 5.8 1.
O5 O2- 4 a 0.0202 0.6769 0.4834 0.7 1.
O6 O2- 4 a 0.3362 0.341 0.7292 2.3 1.
#End of TTdata_94485-ICSD