
#(C) 2022 by FIZ Karlsruhe - Leibniz Institute for Information Infrastructure.  All rights reserved.
data_1037-ICSD
_database_code_ICSD 1037
_audit_creation_date 1980-01-01
_audit_update_record 2011-08-01
_chemical_name_common 'Pentalithium aluminium oxide - beta'
_chemical_formula_structural 'Li5 Al O4'
_chemical_formula_sum 'Al1 Li5 O4'
_chemical_name_structure_type Li5AlO4
_exptl_crystal_density_diffrn 2.23
_citation_title 'Zur Kristallstruktur von beta - Li5 Al O4'
loop_
_citation_id
_citation_journal_full
_citation_year
_citation_journal_volume
_citation_page_first
_citation_page_last
_citation_journal_id_ASTM
primary 'Zeitschrift fuer Anorganische und Allgemeine Chemie (1950) (DE)' 1977
430 211 217 ZAACAB
loop_
_citation_author_citation_id
_citation_author_name
primary 'Hoppe, R.'
primary 'Koenig, H.'
_cell_length_a 6.302
_cell_length_b 6.42
_cell_length_c 4.62
_cell_angle_alpha 90.
_cell_angle_beta 90.
_cell_angle_gamma 90.
_cell_volume 186.92
_cell_formula_units_Z 2
_space_group_name_H-M_alt 'P m m n Z'
_space_group_IT_number 59
loop_
_space_group_symop_id
_space_group_symop_operation_xyz
1 'x+1/2, y+1/2, -z'
2 '-x, y+1/2, -z'
3 'x+1/2, -y, -z'
4 '-x, -y, -z'
5 '-x+1/2, -y+1/2, z'
6 'x, -y+1/2, z'
7 '-x+1/2, y, z'
8 'x, y, z'
loop_
_atom_type_symbol
_atom_type_oxidation_number
Li1+ 1
Al3+ 3
O2- -2
loop_
_atom_site_label
_atom_site_type_symbol
_atom_site_symmetry_multiplicity
_atom_site_Wyckoff_symbol
_atom_site_fract_x
_atom_site_fract_y
_atom_site_fract_z
_atom_site_B_iso_or_equiv
_atom_site_occupancy
Li1 Li1+ 8 g 0.051 0.055 0.746 1.016 1.
Li2 Li1+ 2 b 0.25 0.75 0.788 -0.221 1.
Al1 Al3+ 2 a 0.25 0.25 0.226 0.595 1.
O1 O2- 4 f 0.016 0.25 0.43 0.598 1.
O2 O2- 4 e 0.25 0.018 0.015 0.633 1.
#End of TTdata_1037-ICSD