
#(C) 2022 by FIZ Karlsruhe - Leibniz Institute for Information Infrastructure.  All rights reserved.
data_57177-ICSD
_database_code_ICSD 57177
_audit_creation_date 2005-04-01
_chemical_name_common 'Heptastrontium dodecaaluminium oxide'
_chemical_formula_structural 'Sr7 Al12 O25'
_chemical_formula_sum 'Al12 O25 Sr7'
_exptl_crystal_density_diffrn 3.35
_citation_title

;
The crystal structure of the simplest strontium aluminate with
three-dimensional framework
;
loop_
_citation_id
_citation_journal_full
_citation_year
_citation_journal_volume
_citation_page_first
_citation_page_last
_citation_journal_id_ASTM
primary 'Doklady Akademii Nauk SSSR' 1978 241 821 824 DANKAS
loop_
_citation_author_citation_id
_citation_author_name
primary 'Nevskii, N.N.'
primary 'Glasser, L.D.'
primary 'Ilyukhin, V.V.'
primary 'Belov, N.V.'
_cell_length_a 17.91
_cell_length_b 17.91
_cell_length_c 7.16
_cell_angle_alpha 90.
_cell_angle_beta 90.
_cell_angle_gamma 120.
_cell_volume 1989.
_cell_formula_units_Z 3
_space_group_name_H-M_alt 'P -3'
_space_group_IT_number 147
loop_
_space_group_symop_id
_space_group_symop_operation_xyz
1 'x-y, x, -z'
2 'y, -x+y, -z'
3 '-x, -y, -z'
4 '-x+y, -x, z'
5 '-y, x-y, z'
6 'x, y, z'
loop_
_atom_type_symbol
_atom_type_oxidation_number
Sr2+ 2
Al3+ 3
O2- -2
loop_
_atom_site_label
_atom_site_type_symbol
_atom_site_symmetry_multiplicity
_atom_site_Wyckoff_symbol
_atom_site_fract_x
_atom_site_fract_y
_atom_site_fract_z
_atom_site_B_iso_or_equiv
_atom_site_occupancy
Sr1 Sr2+ 6 g 0.5572 0.077 0.2574 0.336 1.
Sr2 Sr2+ 6 g 0.1083 0.2568 0.4082 0.336 1.
Sr3 Sr2+ 6 g 0.4126 0.19 0.0762 0.336 1.
Sr4 Sr2+ 2 c 0. 0. 0.3115 0.336 0.5
Sr5 Sr2+ 2 d 0.33333 0.66667 0.0301 0.336 0.5
Sr6 Sr2+ 2 d 0.33333 0.66667 0.6398 0.336 0.5
Al1 Al3+ 6 g 0.2792 0.2637 0.2168 0.336 1.
Al2 Al3+ 6 g 0.0527 0.4052 0.1157 0.336 1.
Al3 Al3+ 6 g 0.1953 0.0782 0.0351 0.336 1.
Al5 Al3+ 6 g 0.2144 0.4697 0.3686 0.336 1.
Al6 Al3+ 6 g 0.3894 0.0755 0.4514 0.336 1.
Al7 Al3+ 6 g 0.1377 0.5903 0.2954 0.336 1.
O1 O2- 6 g 0.2509 0.1498 0.2143 0.336 1.
O2 O2- 6 g 0.465 0.062 0.5615 0.336 1.
O3 O2- 6 g 0.392 0.0473 0.2115 0.336 1.
O4 O2- 6 g 0.1309 0.3945 0.2321 0.336 1.
O5 O2- 6 g 0.2017 0.2754 0.1001 0.336 1.
O6 O2- 6 g 0.272 0.2876 0.4571 0.336 1.
O7 O2- 6 g 0.0816 0.5185 0.1201 0.336 1.
O8 O2- 6 g 0.4155 0.1831 0.4522 0.336 1.
O9 O2- 6 g 0.3779 0.3203 0.1201 0.336 1.
O10 O2- 6 g 0.3056 0.52 0.2187 0.336 1.
O11 O2- 6 g 0.0239 0.1415 0.1079 0.336 1.
O12 O2- 6 g 0.1904 0.5508 0.4414 0.336 1.
O13 O2- 2 c 0. 0. 0.1898 0.336 0.5
O14 O2- 2 d 0.33333 0.66667 0.1448 0.336 0.5
O15 O2- 2 d 0.33333 0.66667 0.5255 0.336 0.5
#End of TTdata_57177-ICSD