
#(C) 2022 by FIZ Karlsruhe - Leibniz Institute for Information Infrastructure.  All rights reserved.
data_68771-ICSD
_database_code_ICSD 68771
_audit_creation_date 1992-01-20
_chemical_name_common 'Aluminium oxide (10.7/16) - gamma'
_chemical_formula_structural 'Al10.666 O16'
_chemical_formula_sum 'Al10.666 O16'
_exptl_crystal_density_diffrn 3.67
_citation_title
'Structural models of eta- and gamma-aluminas by X-ray rietveld refinement'
loop_
_citation_id
_citation_journal_full
_citation_year
_citation_journal_volume
_citation_page_first
_citation_page_last
_citation_journal_id_ASTM
primary 'Acta Crystallographica, Section A: Foundations of Crystallography' 1990
46 61 61 ACACEQ
loop_
_citation_author_citation_id
_citation_author_name
primary 'Li, D.-L.'
primary 'O'Connor, B.H.'
primary 'Roach, G.I.D.'
primary 'Cornell, J.B.'
_cell_length_a 5.6
_cell_length_b 5.6
_cell_length_c 7.854
_cell_angle_alpha 90.
_cell_angle_beta 90.
_cell_angle_gamma 90.
_cell_volume 246.3
_cell_formula_units_Z 1
_space_group_name_H-M_alt 'I 41/a m d Z'
_space_group_IT_number 141
loop_
_space_group_symop_id
_space_group_symop_operation_xyz
1 'y+1/4, x+3/4, -z+1/4'
2 'y+1/4, -x+3/4, -z+1/4'
3 'x, y+1/2, -z'
4 'x, -y, -z'
5 '-y+3/4, x+3/4, -z+1/4'
6 '-y+3/4, -x+3/4, -z+1/4'
7 '-x, y+1/2, -z'
8 '-x, -y, -z'
9 '-y+3/4, -x+1/4, z+3/4'
10 '-y+3/4, x+1/4, z+3/4'
11 '-x, -y+1/2, z'
12 '-x, y, z'
13 'y+1/4, -x+1/4, z+3/4'
14 'y+1/4, x+1/4, z+3/4'
15 'x, -y+1/2, z'
16 'x, y, z'
17 'y+3/4, x+1/4, -z+3/4'
18 'y+3/4, -x+1/4, -z+3/4'
19 'x+1/2, y, -z+1/2'
20 'x+1/2, -y+1/2, -z+1/2'
21 '-y+1/4, x+1/4, -z+3/4'
22 '-y+1/4, -x+1/4, -z+3/4'
23 '-x+1/2, y, -z+1/2'
24 '-x+1/2, -y+1/2, -z+1/2'
25 '-y+1/4, -x+3/4, z+1/4'
26 '-y+1/4, x+3/4, z+1/4'
27 '-x+1/2, -y, z+1/2'
28 '-x+1/2, y+1/2, z+1/2'
29 'y+3/4, -x+3/4, z+1/4'
30 'y+3/4, x+3/4, z+1/4'
31 'x+1/2, -y, z+1/2'
32 'x+1/2, y+1/2, z+1/2'
loop_
_atom_type_symbol
_atom_type_oxidation_number
O2- -2
Al3+ 3
loop_
_atom_site_label
_atom_site_type_symbol
_atom_site_symmetry_multiplicity
_atom_site_Wyckoff_symbol
_atom_site_fract_x
_atom_site_fract_y
_atom_site_fract_z
_atom_site_B_iso_or_equiv
_atom_site_occupancy
O1 O2- 16 h 0. 0.01 0.255 . 1.
Al1 Al3+ 8 c 0. 0. 0. . 0.833
Al2 Al3+ 4 b 0. 0.25 0.375 . 1.
#End of TTdata_68771-ICSD