
#(C) 2022 by FIZ Karlsruhe - Leibniz Institute for Information Infrastructure.  All rights reserved.
data_66560-ICSD
_database_code_ICSD 66560
_audit_creation_date 1994-01-19
_chemical_name_common 'Aluminium oxide (2.4/3.6) - theta'
_chemical_formula_structural 'Al2.427 O3.64'
_chemical_formula_sum 'Al2.427 O3.64'
_exptl_crystal_density_diffrn 3.28
_citation_title

;
Structures and transformation mechanisms of the eta, gamma and theta
transition aluminas
;
loop_
_citation_id
_citation_journal_full
_citation_year
_citation_journal_volume
_citation_page_first
_citation_page_last
_citation_journal_id_ASTM
primary 'Acta Crystallographica, Section B: Structural Science' 1991 47 617 630
ASBSDK
loop_
_citation_author_citation_id
_citation_author_name
primary 'Zhou, R.-S.'
primary 'Snyder, R.L.'
_cell_length_a 11.854
_cell_length_b 2.904
_cell_length_c 5.622
_cell_angle_alpha 90.
_cell_angle_beta 103.83
_cell_angle_gamma 90.
_cell_volume 187.92
_cell_formula_units_Z 3
_space_group_name_H-M_alt 'C 1 2/m 1'
_space_group_IT_number 12
loop_
_space_group_symop_id
_space_group_symop_operation_xyz
1 '-x, y, -z'
2 '-x, -y, -z'
3 'x, -y, z'
4 'x, y, z'
5 '-x+1/2, y+1/2, -z'
6 '-x+1/2, -y+1/2, -z'
7 'x+1/2, -y+1/2, z'
8 'x+1/2, y+1/2, z'
loop_
_atom_type_symbol
_atom_type_oxidation_number
O2- -2
Al3+ 3
loop_
_atom_site_label
_atom_site_type_symbol
_atom_site_symmetry_multiplicity
_atom_site_Wyckoff_symbol
_atom_site_fract_x
_atom_site_fract_y
_atom_site_fract_z
_atom_site_B_iso_or_equiv
_atom_site_occupancy
O1 O2- 4 i 0.1728 0. 0.0727 1. 1.
O2 O2- 4 i 0.505 0. 0.2474 1. 0.93
O3 O2- 4 i 0.1611 0. 0.5984 1. 0.8
Al1 Al3+ 4 i 0.3405 0. 0.1835 0.5 0.9
Al2 Al3+ 4 i 0.0834 0. 0.2927 0.5 0.92
#End of TTdata_66560-ICSD