
#(C) 2022 by FIZ Karlsruhe - Leibniz Institute for Information Infrastructure.  All rights reserved.
data_160297-ICSD
_database_code_ICSD 160297
_audit_creation_date 2008-08-01
_chemical_name_common 'Strontium dialuminate'
_chemical_formula_structural 'Sr (Al2 O4)'
_chemical_formula_sum 'Al2 O4 Sr1'
_chemical_name_structure_type SrAl2O4
_exptl_crystal_density_diffrn 3.49
_diffrn_ambient_temperature 888.
_citation_title

;
Transitions between P21, P63(sqrt(3)A) and P6322 modifications of Sr Al2 O4 by
in situ high-temperature X-ray and neutron diffraction
;
loop_
_citation_id
_citation_journal_full
_citation_year
_citation_journal_volume
_citation_page_first
_citation_page_last
_citation_journal_id_ASTM
primary 'Journal of Solid State Chemistry' 2007 180 3535 3544 JSSCBI
loop_
_citation_author_citation_id
_citation_author_name
primary 'Avdeev, M.'
primary 'Yakovlev, S.'
primary 'Yaremchenko, A.A.'
primary 'Kharton, V.V.'
_cell_length_a 5.1732
_cell_length_b 8.8898
_cell_length_c 8.5066
_cell_angle_alpha 90.
_cell_angle_beta 92.875
_cell_angle_gamma 90.
_cell_volume 390.72
_cell_formula_units_Z 4
_space_group_name_H-M_alt 'P 1 21 1'
_space_group_IT_number 4
loop_
_space_group_symop_id
_space_group_symop_operation_xyz
1 '-x, y+1/2, -z'
2 'x, y, z'
loop_
_atom_type_symbol
_atom_type_oxidation_number
Sr2+ 2
Al3+ 3
O2- -2
loop_
_atom_site_label
_atom_site_type_symbol
_atom_site_symmetry_multiplicity
_atom_site_Wyckoff_symbol
_atom_site_fract_x
_atom_site_fract_y
_atom_site_fract_z
_atom_site_U_iso_or_equiv
_atom_site_occupancy
Sr1 Sr2+ 2 a 0.253 0. 0.4968 0.0205 1.
Sr2 Sr2+ 2 a 0.2111 0.0061 0.025 0.0317 1.
Al1 Al3+ 2 a 0.728 0.171 0.193 0.035 1.
Al2 Al3+ 2 a 0.263 0.668 0.204 0.013 1.
Al3 Al3+ 2 a 0.226 0.339 0.698 0.017 1.
Al4 Al3+ 2 a 0.214 0.329 0.321 0.012 1.
O1 O2- 2 a 0.432 0.8293 0.2613 0.021 1.
O2 O2- 2 a 0.4218 0.1798 0.2717 0.029 1.
O3 O2- 2 a 0.358 0.5086 0.3215 0.027 1.
O4 O2- 2 a 0.0989 0.5139 0.7422 0.031 1.
O5 O2- 2 a 0.0693 0.1966 0.8129 0.019 1.
O6 O2- 2 a 0.922 0.3288 0.2107 0.043 1.
O7 O2- 2 a 0.129 0.2924 0.5051 0.043 1.
O8 O2- 2 a 0.3432 0.6217 0.0106 0.05 1.
#End of TTdata_160297-ICSD