
#(C) 2022 by FIZ Karlsruhe - Leibniz Institute for Information Infrastructure.  All rights reserved.
data_160301-ICSD
_database_code_ICSD 160301
_audit_creation_date 2008-08-01
_chemical_name_common 'Strontium dialuminate -  HT'
_chemical_formula_structural 'Sr (Al2 O4)'
_chemical_formula_sum 'Al2 O4 Sr1'
_chemical_name_structure_type BaAl2O4
_exptl_crystal_density_diffrn 3.43
_diffrn_ambient_temperature 1473.
_citation_title

;
Transitions between P21, P63(sqrt(3)A) and P6322 modifications of Sr Al2 O4 by
in situ high-temperature X-ray and neutron diffraction
;
loop_
_citation_id
_citation_journal_full
_citation_year
_citation_journal_volume
_citation_page_first
_citation_page_last
_citation_journal_id_ASTM
primary 'Journal of Solid State Chemistry' 2007 180 3535 3544 JSSCBI
loop_
_citation_author_citation_id
_citation_author_name
primary 'Avdeev, M.'
primary 'Yakovlev, S.'
primary 'Yaremchenko, A.A.'
primary 'Kharton, V.V.'
_cell_length_a 5.1765
_cell_length_b 5.1765
_cell_length_c 8.5758
_cell_angle_alpha 90.
_cell_angle_beta 90.
_cell_angle_gamma 120.
_cell_volume 199.01
_cell_formula_units_Z 2
_space_group_name_H-M_alt 'P 63 2 2'
_space_group_IT_number 182
loop_
_space_group_symop_id
_space_group_symop_operation_xyz
1 'x, x-y, -z+1/2'
2 '-x+y, y, -z+1/2'
3 '-y, -x, -z+1/2'
4 'x-y, x, z+1/2'
5 'y, -x+y, z+1/2'
6 '-x, -y, z+1/2'
7 '-x, -x+y, -z'
8 'x-y, -y, -z'
9 'y, x, -z'
10 '-x+y, -x, z'
11 '-y, x-y, z'
12 'x, y, z'
loop_
_atom_type_symbol
_atom_type_oxidation_number
Sr2+ 2
Al3+ 3
O2- -2
loop_
_atom_site_label
_atom_site_type_symbol
_atom_site_symmetry_multiplicity
_atom_site_Wyckoff_symbol
_atom_site_fract_x
_atom_site_fract_y
_atom_site_fract_z
_atom_site_U_iso_or_equiv
_atom_site_occupancy
Sr1 Sr2+ 2 b 0. 0. 0.25 . 1.
Al1 Al3+ 4 f 0.33333 0.66667 0.5549 0.04 1.
O1 O2- 6 h 0.6057 0.2114 0.25 . 0.333
O2 O2- 6 g 0.3591 0. 0. . 1.
loop_
_atom_site_aniso_label
_atom_site_aniso_type_symbol
_atom_site_aniso_U_11
_atom_site_aniso_U_22
_atom_site_aniso_U_33
_atom_site_aniso_U_12
_atom_site_aniso_U_13
_atom_site_aniso_U_23
Sr1 Sr2+ 0.05 0.05 0.071 0.025 0. 0.
O1 O2- 0.103 0.067 0.064 0.034 0.015 0.
O2 O2- 0.041 0.03 0.185 0.015 -0.009 -0.018
#End of TTdata_160301-ICSD