
#(C) 2022 by FIZ Karlsruhe - Leibniz Institute for Information Infrastructure.  All rights reserved.
data_27744-ICSD
_database_code_ICSD 27744
_audit_creation_date 1980-01-01
_audit_update_record 2007-04-01
_chemical_name_common 'Tetrastrontium tetraaluminium dioxide decaaluminate'
_chemical_formula_structural 'Sr4 Al4 O2 (Al10 O23)'
_chemical_formula_sum 'Al14 O25 Sr4'
_chemical_name_structure_type Sr4Al14O25
_exptl_crystal_density_diffrn 3.65
_citation_title 'Crystal structure of strontium aluminate Sr4 Al4 O2 (Al10 O23)'
loop_
_citation_id
_citation_journal_full
_citation_year
_citation_journal_volume
_citation_page_first
_citation_page_last
_citation_journal_id_ASTM
primary Kristallografiya 1976 21 826 828 KRISAJ
loop_
_citation_author_citation_id
_citation_author_name
primary 'Nadezhina, T.N.'
primary 'Pobedimskaya, E.A.'
primary 'Belov, N.V.'
_cell_length_a 24.785
_cell_length_b 8.487
_cell_length_c 4.886
_cell_angle_alpha 90.
_cell_angle_beta 90.
_cell_angle_gamma 90.
_cell_volume 1027.77
_cell_formula_units_Z 2
_space_group_name_H-M_alt 'P m m a'
_space_group_IT_number 51
loop_
_space_group_symop_id
_space_group_symop_operation_xyz
1 '-x+1/2, -y, z'
2 'x+1/2, -y, -z'
3 'x, -y, z'
4 '-x, -y, -z'
5 'x+1/2, y, -z'
6 '-x+1/2, y, z'
7 '-x, y, -z'
8 'x, y, z'
loop_
_atom_type_symbol
_atom_type_oxidation_number
Sr2+ 2
Al3+ 3
O2- -2
loop_
_atom_site_label
_atom_site_type_symbol
_atom_site_symmetry_multiplicity
_atom_site_Wyckoff_symbol
_atom_site_fract_x
_atom_site_fract_y
_atom_site_fract_z
_atom_site_B_iso_or_equiv
_atom_site_occupancy
Sr1 Sr2+ 4 i 0.1376 0. 0.033 0.28 1.
Sr2 Sr2+ 4 j 0.1208 0.5 0.113 0.17 1.
Al1 Al3+ 8 l 0.185 0.302 0.633 0.11 1.
Al2 Al3+ 8 l 0.0664 0.174 0.51 -0.14 1.
Al3 Al3+ 4 k 0.25 0.201 0.127 0.21 1.
Al4 Al3+ 4 g 0. 0.324 0. 0.16 1.
Al5 Al3+ 2 d 0. 0.5 0.5 -0.05 1.
Al6 Al3+ 2 a 0. 0. 0. -0.03 1.
O1 O2- 8 l 0.0422 0.343 0.328 0.06 1.
O2 O2- 8 l 0.1368 0.171 0.502 0.25 1.
O3 O2- 8 l 0.6908 0.271 0.018 -0.02 1.
O4 O2- 4 k 0.25 0.264 0.473 -0.14 1.
O5 O2- 4 j 0.5391 0.5 0.177 -0.06 1.
O6 O2- 4 i 0.0507 0. 0.323 0.17 1.
O7 O2- 4 j 0.1651 0.5 0.574 0.85 1.
O8 O2- 8 l 0.5444 0.156 0.158 0.05 1.
O9 O2- 2 e 0.25 0. 0.097 0.25 1.
#End of TTdata_27744-ICSD