
#(C) 2022 by FIZ Karlsruhe - Leibniz Institute for Information Infrastructure.  All rights reserved.
data_200671-ICSD
_database_code_ICSD 200671
_audit_creation_date 1980-01-01
_audit_update_record 2006-04-01
_chemical_name_common 'Heptastrontium dodecaaluminium oxide'
_chemical_formula_structural 'Sr7 Al12 O25'
_chemical_formula_sum 'Al12 O25 Sr7'
_exptl_crystal_density_diffrn 3.35
_citation_title

;
The crystal structure of the simplest strontium aluminate with
three-dimensional framework
;
loop_
_citation_id
_citation_journal_full
_citation_year
_citation_journal_volume
_citation_page_first
_citation_page_last
_citation_journal_id_ASTM
primary 'Doklady Akademii Nauk SSSR' 1978 241 821 824 DANKAS
loop_
_citation_author_citation_id
_citation_author_name
primary 'Nevskii, N.N.'
primary 'Glasser, L.D.'
primary 'Ilyukhin, V.V.'
primary 'Belov, N.V.'
_cell_length_a 17.91
_cell_length_b 17.91
_cell_length_c 7.16
_cell_angle_alpha 90.
_cell_angle_beta 90.
_cell_angle_gamma 120.
_cell_volume 1989.
_cell_formula_units_Z 3
_space_group_name_H-M_alt 'P 3'
_space_group_IT_number 143
loop_
_space_group_symop_id
_space_group_symop_operation_xyz
1 '-x+y, -x, z'
2 '-y, x-y, z'
3 'x, y, z'
loop_
_atom_type_symbol
_atom_type_oxidation_number
Sr2+ 2
Al3+ 3
O2- -2
loop_
_atom_site_label
_atom_site_type_symbol
_atom_site_symmetry_multiplicity
_atom_site_Wyckoff_symbol
_atom_site_fract_x
_atom_site_fract_y
_atom_site_fract_z
_atom_site_B_iso_or_equiv
_atom_site_occupancy
Sr1 Sr2+ 3 d 0.5539 0.075 0. 0.336 1.
Sr2 Sr2+ 3 d 0.1074 0.2558 0.8458 0.336 1.
Sr3 Sr2+ 3 d 0.414 0.1894 0.1817 0.336 1.
Sr4 Sr2+ 3 d 0.2207 0.4111 0.334 0.336 1.
Sr5 Sr2+ 3 d 0.2578 0.1485 0.6622 0.336 1.
Sr6 Sr2+ 3 d 0.0781 0.5176 0.5147 0.336 1.
Sr7 Sr2+ 1 a 0. 0. 0.5491 0.336 0.5
Sr8 Sr2+ 1 a 0. 0. 0.948 0.336 0.5
Sr9 Sr2+ 1 b 0.33333 0.66667 0.218 0.336 0.5
Sr10 Sr2+ 1 b 0.33333 0.66667 0.6089 0.336 0.5
Sr11 Sr2+ 1 c 0.66667 0.33333 0.8885 0.336 0.5
Sr12 Sr2+ 1 c 0.66667 0.33333 0.2781 0.336 0.5
Al1 Al3+ 3 d 0.0156 0.2792 0.4708 0.336 1.
Al2 Al3+ 3 d 0.0527 0.4043 0.1368 0.336 1.
Al3 Al3+ 3 d 0.1172 0.1953 0.2862 0.336 1.
Al4 Al3+ 3 d 0.1953 0.0782 0.2159 0.336 1.
Al5 Al3+ 3 d 0.4687 0.2549 0.6211 0.336 1.
Al6 Al3+ 3 d 0.3857 0.0723 0.8047 0.336 1.
Al7 Al3+ 3 d 0.2792 0.2636 0.0372 0.336 1.
Al8 Al3+ 3 d 0.5449 0.1367 0.5489 0.336 1.
Al9 Al3+ 3 d 0.4062 0.3535 0.3721 0.336 1.
Al10 Al3+ 3 d 0.2149 0.4707 0.8838 0.336 1.
Al11 Al3+ 3 d 0.3145 0.3896 0.7061 0.336 1.
Al12 Al3+ 3 d 0.1387 0.5888 0.9581 0.336 1.
O1 O2- 3 d 0.2509 0.1494 0.0362 0.336 1.
O2 O2- 3 d 0.0625 0.5938 0.8096 0.336 1.
O3 O2- 3 d 0.3916 0.0468 0.0381 0.336 1.
O4 O2- 3 d 0.4629 0.0615 0.6866 0.336 1.
O5 O2- 3 d 0.3974 0.2646 0.4815 0.336 1.
O6 O2- 3 d 0.2783 0.0752 0.3477 0.336 1.
O7 O2- 3 d 0.2002 0.2724 0.1475 0.336 1.
O8 O2- 3 d 0.289 0.0185 0.7071 0.336 1.
O9 O2- 3 d 0.5616 0.083 0.3711 0.336 1.
O10 O2- 3 d 0.129 0.3916 0.0176 0.336 1.
O11 O2- 3 d 0.3447 0.3925 0.461 0.336 1.
O12 O2- 3 d 0.2334 0.416 0.7022 0.336 1.
O13 O2- 3 d 0.0801 0.5156 0.1309 0.336 1.
O14 O2- 3 d 0.1006 0.2509 0.4649 0.336 1.
O15 O2- 3 d 0.415 0.1836 0.7979 0.336 1.
O16 O2- 3 d 0.0586 0.3759 0.3672 0.336 1.
O17 O2- 3 d 0.3798 0.3232 0.127 0.336 1.
O18 O2- 3 d 0.5166 0.211 0.4639 0.336 1.
O19 O2- 3 d 0.2725 0.2861 0.793 0.336 1.
O20 O2- 3 d 0.0225 0.1455 0.1299 0.336 1.
O21 O2- 3 d 0.1376 0.1123 0.3458 0.336 1.
O22 O2- 3 d 0.5547 0.3614 0.6827 0.336 1.
O23 O2- 3 d 0.3057 0.5234 0.0264 0.336 1.
O24 O2- 3 d 0.1875 0.5469 0.7999 0.336 1.
O25 O2- 1 a 0. 0. 0.4379 0.336 0.5
O26 O2- 1 a 0. 0. 0.0582 0.336 0.5
O27 O2- 1 b 0.33333 0.66667 0.1085 0.336 0.5
O28 O2- 1 b 0.33333 0.66667 0.7179 0.336 0.5
O29 O2- 1 c 0.66667 0.33333 0.7689 0.336 0.5
O30 O2- 1 c 0.66667 0.33333 0.3981 0.336 0.5
#End of TTdata_200671-ICSD