
#(C) 2022 by FIZ Karlsruhe - Leibniz Institute for Information Infrastructure.  All rights reserved.
data_88527-ICSD
_database_code_ICSD 88527
_audit_creation_date 2001-07-16
_audit_update_record 2011-02-01
_chemical_name_common 'Tetrastrontium tetradecaaluminium oxide'
_chemical_formula_structural '(Sr O)4 (Al2 O3)7'
_chemical_formula_sum 'Al14 O25 Sr4'
_chemical_name_structure_type Sr4Al14O25
_exptl_crystal_density_diffrn 3.66
_citation_title

;
Synthesis, crystal structure and X-ray powder diffraction data of the phosphor
matrix 4(Sr O) * 7(Al2 O3)
;
loop_
_citation_id
_citation_journal_full
_citation_year
_citation_journal_volume
_citation_page_first
_citation_page_last
_citation_journal_id_ASTM
primary 'Journal of Materials Science' 1999 34 4959 4964 JMTSAS
loop_
_citation_author_citation_id
_citation_author_name
primary 'Wang, D.'
primary 'Wang, M.-Q.'
primary 'Lu, G.-G.'
_cell_length_a 24.7451
_cell_length_b 8.4735
_cell_length_c 4.8808
_cell_angle_alpha 90.
_cell_angle_beta 90.
_cell_angle_gamma 90.
_cell_volume 1023.39
_cell_formula_units_Z 2
_space_group_name_H-M_alt 'P m m a'
_space_group_IT_number 51
loop_
_space_group_symop_id
_space_group_symop_operation_xyz
1 '-x+1/2, -y, z'
2 'x+1/2, -y, -z'
3 'x, -y, z'
4 '-x, -y, -z'
5 'x+1/2, y, -z'
6 '-x+1/2, y, z'
7 '-x, y, -z'
8 'x, y, z'
loop_
_atom_type_symbol
_atom_type_oxidation_number
Sr2+ 2
Al3+ 3
O2- -2
loop_
_atom_site_label
_atom_site_type_symbol
_atom_site_symmetry_multiplicity
_atom_site_Wyckoff_symbol
_atom_site_fract_x
_atom_site_fract_y
_atom_site_fract_z
_atom_site_B_iso_or_equiv
_atom_site_occupancy
Sr1 Sr2+ 4 i 0.1379 0. 0.0346 0.8228 1.
Sr2 Sr2+ 4 j 0.121 0.5 0.1154 0.464 1.
Al1 Al3+ 8 l 0.1861 0.3064 0.6196 0.7525 1.
Al2 Al3+ 8 l 0.0661 0.1782 0.5126 0.39 1.
Al3 Al3+ 4 k 0.25 0.205 0.1297 0.6043 1.
Al4 Al3+ 4 g 0. 0.3325 0. 0.4336 1.
Al5 Al3+ 2 d 0. 0.5 0.5 0.4592 1.
Al6 Al3+ 2 a 0. 0. 0. 0.3223 1.
O1 O2- 8 l 0.0424 0.3362 0.3295 0.332 1.
O2 O2- 8 l 0.1378 0.1827 0.5013 0.4499 1.
O3 O2- 8 l 0.6916 0.2715 0.0265 0.7918 1.
O4 O2- 4 k 0.25 0.2714 0.4796 2.031 1.
O5 O2- 4 j 0.5367 0.5 0.1713 0.8059 1.
O6 O2- 4 i 0.0512 0. 0.3548 0.3993 1.
O7 O2- 4 j 0.1639 0.5 0.5777 0.4359 1.
O8 O2- 8 l 0.5435 0.1652 0.1533 0.3926 1.
O9 O2- 2 e 0.25 0. 0.1001 1.68 1.
#End of TTdata_88527-ICSD