
#(C) 2022 by FIZ Karlsruhe - Leibniz Institute for Information Infrastructure.  All rights reserved.
data_136648-ICSD
_database_code_ICSD 136648
_audit_creation_date 2022-08-01
_chemical_name_common 'Strontium dialuminate'
_chemical_formula_structural 'Sr Al4 O7'
_chemical_formula_sum 'Al4 O7 Sr1'
_chemical_name_structure_type CaAl4O7
_exptl_crystal_density_diffrn 3.26
_citation_title

;
Sol-gel combustion synthesis, crystal structure and luminescence of Cr$^{3+}$
and Mn$^{4+}$ ions in nanocrystalline SrAl$_4$O$_7$
;
loop_
_citation_id
_citation_journal_full
_citation_year
_citation_journal_volume
_citation_page_first
_citation_page_last
_citation_journal_id_ASTM
primary Inorganics 2021 9 1 13 INORCW
loop_
_citation_author_citation_id
_citation_author_name
primary 'Stadnik, Vitalii'
primary 'Hreb, Vasyl'
primary 'Luchechko, Andriy'
primary 'Zhydachevskyy, Yaroslav'
primary 'Suchocki, Andrzej'
primary 'Vasylechko, Leonid'
_cell_length_a 13.0469
_cell_length_b 9.0227
_cell_length_c 5.5443
_cell_angle_alpha 90.
_cell_angle_beta 106.197
_cell_angle_gamma 90.
_cell_volume 626.76
_cell_formula_units_Z 4
_space_group_name_H-M_alt 'C 1 2/c 1'
_space_group_IT_number 15
loop_
_space_group_symop_id
_space_group_symop_operation_xyz
1 'x, -y, z+1/2'
2 '-x, -y, -z'
3 '-x, y, -z+1/2'
4 'x, y, z'
5 'x+1/2, -y+1/2, z+1/2'
6 '-x+1/2, -y+1/2, -z'
7 '-x+1/2, y+1/2, -z+1/2'
8 'x+1/2, y+1/2, z'
loop_
_atom_type_symbol
_atom_type_oxidation_number
Sr2+ 2
Al3+ 3
O2- -2
loop_
_atom_site_label
_atom_site_type_symbol
_atom_site_symmetry_multiplicity
_atom_site_Wyckoff_symbol
_atom_site_fract_x
_atom_site_fract_y
_atom_site_fract_z
_atom_site_B_iso_or_equiv
_atom_site_occupancy
Sr1 Sr2+ 4 e 0. 0.3115 0.25 0.99 1.
Al1 Al3+ 8 f 0.3328 0.0853 0.2026 0.9 1.
Al2 Al3+ 8 f 0.3754 0.439 0.234 1. 1.
O1 O2- 4 e 0. 0.0218 0.25 1.7 1.
O2 O2- 8 f 0.1243 0.4626 0.044 1.2 1.
O3 O2- 8 f 0.374 0.2567 0.33 0.8 1.
O4 O2- 8 f 0.1904 0.0566 0.097 1.3 1.
#End of TTdata_136648-ICSD