
#(C) 2022 by FIZ Karlsruhe - Leibniz Institute for Information Infrastructure.  All rights reserved.
data_291357-ICSD
_database_code_ICSD 291357
_audit_creation_date 2015-08-01
_chemical_name_common 'Strontium dialuminium oxide'
_chemical_formula_structural 'Sr Al2 O4'
_chemical_formula_sum 'Al2 O4 Sr1'
_chemical_name_structure_type SrAl2O4
_exptl_crystal_density_diffrn 3.57
_diffrn_ambient_temperature 300.
_citation_title

;
Average and local structure, Debye temperature, and structural rigidity in
some oxide compounds related to phosphor hosts
;
loop_
_citation_id
_citation_journal_full
_citation_year
_citation_journal_volume
_citation_page_first
_citation_page_last
_citation_journal_id_ASTM
primary 'ACS Applied Materials & Interfaces' 2015 7 7264 7272 AAMICK
loop_
_citation_author_citation_id
_citation_author_name
primary 'Denault, Kristin A.'
primary 'Brgoch, Jakoah'
primary 'Kloss, Simon D.'
primary 'Gaultois, Michael W.'
primary 'Siewenie, Joan'
primary 'Page, Katharine'
primary 'Seshadri, Ram'
_cell_length_a 5.1564
_cell_length_b 8.8142
_cell_length_c 8.439
_cell_angle_alpha 90.
_cell_angle_beta 93.409
_cell_angle_gamma 90.
_cell_volume 382.87
_cell_formula_units_Z 4
_space_group_name_H-M_alt 'P 1 21 1'
_space_group_IT_number 4
loop_
_space_group_symop_id
_space_group_symop_operation_xyz
1 '-x, y+1/2, -z'
2 'x, y, z'
loop_
_atom_type_symbol
_atom_type_oxidation_number
Sr2+ 2
Al3+ 3
O2- -2
loop_
_atom_site_label
_atom_site_type_symbol
_atom_site_symmetry_multiplicity
_atom_site_Wyckoff_symbol
_atom_site_fract_x
_atom_site_fract_y
_atom_site_fract_z
_atom_site_U_iso_or_equiv
_atom_site_occupancy
Sr1 Sr2+ 2 a 0.2501 0.0008 0.49148 0.0087 1.
Sr2 Sr2+ 2 a 0.2027 0.0068 0.02909 0.0125 1.
Al1 Al3+ 2 a 0.7152 0.1695 0.189 0.0088 1.
Al2 Al3+ 2 a 0.2685 0.6607 0.2007 0.0048 1.
Al3 Al3+ 2 a 0.2211 0.3318 0.7087 0.003 1.
Al4 Al3+ 2 a 0.2041 0.3291 0.3194 0.0015 1.
O1 O2- 2 a 0.4364 0.8261 0.2653 0.0096 1.
O2 O2- 2 a 0.4129 0.1835 0.2695 0.0088 1.
O3 O2- 2 a 0.3295 0.5089 0.3258 0.0134 1.
O4 O2- 2 a 0.1013 0.5162 0.733 0.0061 1.
O5 O2- 2 a 0.0634 0.2023 0.8242 0.0089 1.
O6 O2- 2 a 0.9086 0.3339 0.2059 0.0095 1.
O7 O2- 2 a 0.1182 0.2836 0.511 0.0087 1.
O8 O2- 2 a 0.3487 0.6146 0.0063 0.0106 1.
#End of TTdata_291357-ICSD