
#(C) 2022 by FIZ Karlsruhe - Leibniz Institute for Information Infrastructure.  All rights reserved.
data_97713-ICSD
_database_code_ICSD 97713
_audit_creation_date 2004-10-01
_chemical_name_common 'Distrontium hexaaluminate - Eu(II)-doped'
_chemical_formula_structural 'Sr2 (Al6 O11)'
_chemical_formula_sum 'Al6 O11 Sr2'
_exptl_crystal_density_diffrn 3.79
_citation_title
'Crystal structure and luminescence properties of Sr2 Al6 O11:Eu(2+)'
loop_
_citation_id
_citation_journal_full
_citation_year
_citation_journal_volume
_citation_page_first
_citation_page_last
_citation_journal_id_ASTM
primary 'Funtai Oyobi Funmatsu Yakin' 2002 49 1128 1133 FOFUA2
loop_
_citation_author_citation_id
_citation_author_name
primary 'Takeda, T.'
primary 'Takahashi, K.'
primary 'Uheda, K.'
primary 'Takizawa, H.'
primary 'Endo, T.'
_cell_length_a 4.8843
_cell_length_b 21.9145
_cell_length_c 8.4039
_cell_angle_alpha 90.
_cell_angle_beta 90.
_cell_angle_gamma 90.
_cell_volume 899.53
_cell_formula_units_Z 4
_space_group_name_H-M_alt 'P n n m'
_space_group_IT_number 58
loop_
_space_group_symop_id
_space_group_symop_operation_xyz
1 'x+1/2, -y+1/2, z+1/2'
2 '-x+1/2, y+1/2, z+1/2'
3 'x, y, -z'
4 '-x, -y, -z'
5 '-x+1/2, y+1/2, -z+1/2'
6 'x+1/2, -y+1/2, -z+1/2'
7 '-x, -y, z'
8 'x, y, z'
loop_
_atom_type_symbol
_atom_type_oxidation_number
Sr2+ 2
Al3+ 3
O2- -2
loop_
_atom_site_label
_atom_site_type_symbol
_atom_site_symmetry_multiplicity
_atom_site_Wyckoff_symbol
_atom_site_fract_x
_atom_site_fract_y
_atom_site_fract_z
_atom_site_B_iso_or_equiv
_atom_site_occupancy
Sr1 Sr2+ 4 g 0.62077 0.36076 0. 1.72 1.
Sr2 Sr2+ 4 g 0.0346 0.15547 0. 1.72 1.
Al1 Al3+ 2 c 0. 0.5 0. 1.36 1.
Al2 Al3+ 2 a 0. 0. 0. 1.36 1.
Al3 Al3+ 4 e 0. 0. 0.3308 1.36 1.
Al4 Al3+ 8 h 0.12 0.2851 0.2009 1.36 1.
Al5 Al3+ 8 h 0.0138 0.4249 0.3188 1.36 1.
O1 O2- 4 g 0.322 0.0605 0. 1.56 1.
O2 O2- 4 g 0.068 0.2967 0. 1.56 1.
O3 O2- 8 h 0.322 0.047 0.3421 1.56 1.
O4 O2- 8 h 0.495 0.1546 0.173 1.56 1.
O5 O2- 4 g 0.316 0.4545 0. 1.56 1.
O6 O2- 8 h 0.338 0.4505 0.3442 1.56 1.
O7 O2- 8 h 0.451 0.2802 0.24 1.56 1.
#End of TTdata_97713-ICSD