
#(C) 2022 by FIZ Karlsruhe - Leibniz Institute for Information Infrastructure.  All rights reserved.
data_34803-ICSD
_database_code_ICSD 34803
_audit_creation_date 1982-12-31
_audit_update_record 2007-04-01
_chemical_name_common 'Strontium tetraaluminate - beta, HP'
_chemical_formula_structural 'Sr (Al4 O7)'
_chemical_formula_sum 'Al4 O7 Sr1'
_chemical_name_structure_type CaAlB3O7
_exptl_crystal_density_diffrn 4.84
_citation_title 'Structure of strontium tetraaluminate beta-Sr Al4 O7'
loop_
_citation_id
_citation_journal_full
_citation_year
_citation_journal_volume
_citation_page_first
_citation_page_last
_citation_journal_id_ASTM
primary

;
Acta Crystallographica, Section B: Structural Crystallography and Crystal
Chemistry
; 1982 38 889 891 ACBCAR
loop_
_citation_author_citation_id
_citation_author_name
primary 'Machida, K.I.'
primary 'Adachi, G.Y.'
primary 'Shiokawa, J.'
primary 'Shimada, M.'
primary 'Koizumi, M.'
_cell_length_a 8.085
_cell_length_b 11.845
_cell_length_c 4.407
_cell_angle_alpha 90.
_cell_angle_beta 90.
_cell_angle_gamma 90.
_cell_volume 422.04
_cell_formula_units_Z 4
_space_group_name_H-M_alt 'C m m a'
_space_group_IT_number 67
loop_
_space_group_symop_id
_space_group_symop_operation_xyz
1 'x+1/2, y, -z'
2 'x+1/2, -y, z'
3 '-x, y, z'
4 '-x, -y, -z'
5 '-x+1/2, -y, z'
6 '-x+1/2, y, -z'
7 'x, -y, -z'
8 'x, y, z'
9 'x, y+1/2, -z'
10 'x, -y+1/2, z'
11 '-x+1/2, y+1/2, z'
12 '-x+1/2, -y+1/2, -z'
13 '-x, -y+1/2, z'
14 '-x, y+1/2, -z'
15 'x+1/2, -y+1/2, -z'
16 'x+1/2, y+1/2, z'
loop_
_atom_type_symbol
_atom_type_oxidation_number
Sr2+ 2
Al3+ 3
O2- -2
loop_
_atom_site_label
_atom_site_type_symbol
_atom_site_symmetry_multiplicity
_atom_site_Wyckoff_symbol
_atom_site_fract_x
_atom_site_fract_y
_atom_site_fract_z
_atom_site_B_iso_or_equiv
_atom_site_occupancy
Sr1 Sr2+ 4 f 0.25 0.25 0.5 0.34 1.
Al1 Al3+ 4 d 0. 0. 0.5 0.26 1.
Al2 Al3+ 4 a 0.25 0. 0. 1.12 1.
Al3 Al3+ 8 m 0. 0.136 0.046 1.3 1.
O1 O2- 4 g 0. 0.25 0.165 0.45 1.
O2 O2- 8 m 0. 0.628 0.282 0.39 1.
O3 O2- 16 o 0.144 0.073 0.198 0.33 1.
#End of TTdata_34803-ICSD