
#(C) 2022 by FIZ Karlsruhe - Leibniz Institute for Information Infrastructure.  All rights reserved.
data_160296-ICSD
_database_code_ICSD 160296
_audit_creation_date 2008-08-01
_chemical_name_common 'Strontium dialuminate'
_chemical_formula_structural 'Sr (Al2 O4)'
_chemical_formula_sum 'Al2 O4 Sr1'
_chemical_name_structure_type SrAl2O4
_exptl_crystal_density_diffrn 3.56
_diffrn_ambient_temperature 298.
_citation_title

;
Transitions between P21, P63(sqrt(3)A) and P6322 modifications of Sr Al2 O4 by
in situ high-temperature X-ray and neutron diffraction
;
loop_
_citation_id
_citation_journal_full
_citation_year
_citation_journal_volume
_citation_page_first
_citation_page_last
_citation_journal_id_ASTM
primary 'Journal of Solid State Chemistry' 2007 180 3535 3544 JSSCBI
loop_
_citation_author_citation_id
_citation_author_name
primary 'Avdeev, M.'
primary 'Yakovlev, S.'
primary 'Yaremchenko, A.A.'
primary 'Kharton, V.V.'
_cell_length_a 5.1596
_cell_length_b 8.8224
_cell_length_c 8.4436
_cell_angle_alpha 90.
_cell_angle_beta 93.411
_cell_angle_gamma 90.
_cell_volume 383.67
_cell_formula_units_Z 4
_space_group_name_H-M_alt 'P 1 21 1'
_space_group_IT_number 4
loop_
_space_group_symop_id
_space_group_symop_operation_xyz
1 '-x, y+1/2, -z'
2 'x, y, z'
loop_
_atom_type_symbol
_atom_type_oxidation_number
Sr2+ 2
Al3+ 3
O2- -2
loop_
_atom_site_label
_atom_site_type_symbol
_atom_site_symmetry_multiplicity
_atom_site_Wyckoff_symbol
_atom_site_fract_x
_atom_site_fract_y
_atom_site_fract_z
_atom_site_U_iso_or_equiv
_atom_site_occupancy
Sr1 Sr2+ 2 a 0.2514 0. 0.4946 0.0065 1.
Sr2 Sr2+ 2 a 0.2024 0.0078 0.0315 0.0104 1.
Al1 Al3+ 2 a 0.7175 0.1701 0.1914 0.016 1.
Al2 Al3+ 2 a 0.2651 0.6639 0.1964 0.004 1.
Al3 Al3+ 2 a 0.2239 0.332 0.7082 0.003 1.
Al4 Al3+ 2 a 0.1995 0.3322 0.3213 0.007 1.
O1 O2- 2 a 0.4364 0.8312 0.2659 0.0094 1.
O2 O2- 2 a 0.4127 0.1855 0.2687 0.0046 1.
O3 O2- 2 a 0.348 0.5124 0.3262 0.0097 1.
O4 O2- 2 a 0.0992 0.5174 0.7326 0.0091 1.
O5 O2- 2 a 0.0652 0.2051 0.8272 0.0096 1.
O6 O2- 2 a 0.9064 0.33488 0.2046 0.0078 1.
O7 O2- 2 a 0.1212 0.2865 0.5118 0.0137 1.
O8 O2- 2 a 0.3486 0.6137 0.0081 0.0168 1.
#End of TTdata_160296-ICSD