
#(C) 2022 by FIZ Karlsruhe - Leibniz Institute for Information Infrastructure.  All rights reserved.
data_258392-ICSD
_database_code_ICSD 258392
_audit_creation_date 2018-02-01
_chemical_name_common 'Strontium aluminum oxide - doped with manganese'
_chemical_formula_structural 'Sr4 Al14 O25'
_chemical_formula_sum 'Al14 O25 Sr4'
_chemical_name_structure_type Sr4Al14O25
_exptl_crystal_density_diffrn 3.65
_citation_title

;
Aluminate red phosphor in light-emitting diodes: Theoretical calculations,
charge varieties, and high-pressure luminescence analysis
;
loop_
_citation_id
_citation_journal_full
_citation_year
_citation_journal_volume
_citation_page_first
_citation_page_last
_citation_journal_id_ASTM
primary 'ACS Applied Materials & Interfaces' 2017 9 23995 24004 AAMICK
loop_
_citation_author_citation_id
_citation_author_name
primary 'Zhang, Niumiao'
primary 'Tsai, Yi-Ting'
primary 'Fang, Mu-Huai'
primary 'Ma, Chong-Geng'
primary 'Lazarowska, Agata'
primary 'Mahlik, Sebastian'
primary 'Grinberg, Marek'
primary 'Chiang, Chang-Yang'
primary 'Zhou, Wuzong'
primary 'Lin, Jauyn Grace'
primary 'Lee, Jyh-Fu'
primary 'Zheng, Jiming'
primary 'Guo, Chongfeng'
primary 'Liu, Ru-Shi'
_cell_length_a 24.7703
_cell_length_b 8.4797
_cell_length_c 4.8833
_cell_angle_alpha 90.
_cell_angle_beta 90.
_cell_angle_gamma 90.
_cell_volume 1025.71
_cell_formula_units_Z 2
_space_group_name_H-M_alt 'P m m a'
_space_group_IT_number 51
loop_
_space_group_symop_id
_space_group_symop_operation_xyz
1 '-x+1/2, -y, z'
2 'x+1/2, -y, -z'
3 'x, -y, z'
4 '-x, -y, -z'
5 'x+1/2, y, -z'
6 '-x+1/2, y, z'
7 '-x, y, -z'
8 'x, y, z'
loop_
_atom_type_symbol
_atom_type_oxidation_number
Sr2+ 2
Al3+ 3
O2- -2
loop_
_atom_site_label
_atom_site_type_symbol
_atom_site_symmetry_multiplicity
_atom_site_Wyckoff_symbol
_atom_site_fract_x
_atom_site_fract_y
_atom_site_fract_z
_atom_site_U_iso_or_equiv
_atom_site_occupancy
Sr1 Sr2+ 4 i 0.1376 0. 0.03 0.0035 1.
Sr2 Sr2+ 4 j 0.1208 0.5 0.113 0.0022 1.
Al1 Al3+ 8 l 0.185 0.302 0.633 0.0014 1.
Al2 Al3+ 8 l 0.0664 0.174 0.51 0.0018 1.
Al3 Al3+ 4 k 0.25 0.201 0.127 0.0027 1.
Al4 Al3+ 4 g 0. 0.324 0. 0.002 1.
Al5 Al3+ 4 j 0. 0.5 0.0005 0.0006 1.
Al6 Al3+ 2 a 0. 0. 0. 0.0004 1.
O1 O2- 8 l 0.0422 0.343 0.328 0.0008 1.
O2 O2- 8 l 0.1368 0.171 0.502 0.0032 1.
O3 O2- 8 l 0.1908 0.271 0.018 0.0003 1.
O4 O2- 4 k 0.25 0.264 0.473 0.0018 1.
O5 O2- 4 j 0.5391 0.5 0.177 0.0008 1.
O6 O2- 4 i 0.0507 0. 0.323 0.0022 1.
O7 O2- 4 j 0.1651 0.5 0.574 0.0108 1.
O8 O2- 8 l 0.5444 0.156 0.158 0.0006 1.
O9 O2- 2 e 0.25 0. 0.097 0.0032 1.
#End of TTdata_258392-ICSD