
#(C) 2022 by FIZ Karlsruhe - Leibniz Institute for Information Infrastructure.  All rights reserved.
data_291361-ICSD
_database_code_ICSD 291361
_audit_creation_date 2015-08-01
_chemical_name_common 'Strontium dialuminium oxide'
_chemical_formula_structural 'Sr Al2 O4'
_chemical_formula_sum 'Al2 O4 Sr1'
_chemical_name_structure_type SrAl2O4
_exptl_crystal_density_diffrn 3.59
_diffrn_ambient_temperature 15.
_citation_title

;
Average and local structure, Debye temperature, and structural rigidity in
some oxide compounds related to phosphor hosts
;
loop_
_citation_id
_citation_journal_full
_citation_year
_citation_journal_volume
_citation_page_first
_citation_page_last
_citation_journal_id_ASTM
primary 'ACS Applied Materials & Interfaces' 2015 7 7264 7272 AAMICK
loop_
_citation_author_citation_id
_citation_author_name
primary 'Denault, Kristin A.'
primary 'Brgoch, Jakoah'
primary 'Kloss, Simon D.'
primary 'Gaultois, Michael W.'
primary 'Siewenie, Joan'
primary 'Page, Katharine'
primary 'Seshadri, Ram'
_cell_length_a 5.1565
_cell_length_b 8.7888
_cell_length_c 8.4163
_cell_angle_alpha 90.
_cell_angle_beta 93.508
_cell_angle_gamma 90.
_cell_volume 380.71
_cell_formula_units_Z 4
_space_group_name_H-M_alt 'P 1 21 1'
_space_group_IT_number 4
loop_
_space_group_symop_id
_space_group_symop_operation_xyz
1 '-x, y+1/2, -z'
2 'x, y, z'
loop_
_atom_type_symbol
_atom_type_oxidation_number
Sr2+ 2
Al3+ 3
O2- -2
loop_
_atom_site_label
_atom_site_type_symbol
_atom_site_symmetry_multiplicity
_atom_site_Wyckoff_symbol
_atom_site_fract_x
_atom_site_fract_y
_atom_site_fract_z
_atom_site_U_iso_or_equiv
_atom_site_occupancy
Sr1 Sr2+ 2 a 0.749 0.4996 0.5094 0.0049 1.
Sr2 Sr2+ 2 a 0.2005 0.0062 0.0313 0.0063 1.
Al1 Al3+ 2 a 0.7133 0.1691 0.1894 0.0027 1.
Al2 Al3+ 2 a 0.2693 0.6593 0.1997 0.0026 1.
Al3 Al3+ 2 a 0.2222 0.3299 0.7074 0.0043 1.
Al4 Al3+ 2 a 0.1982 0.3308 0.3203 0.0026 1.
O1 O2- 2 a 0.437 0.8277 0.2639 0.0065 1.
O2 O2- 2 a 0.4091 0.1834 0.2693 0.0063 1.
O3 O2- 2 a 0.3442 0.5088 0.3294 0.0075 1.
O4 O2- 2 a 0.1033 0.517 0.732 0.005 1.
O5 O2- 2 a 0.0642 0.2045 0.8284 0.008 1.
O6 O2- 2 a 0.9039 0.334 0.2066 0.0067 1.
O7 O2- 2 a 0.1165 0.2806 0.5142 0.0061 1.
O8 O2- 2 a 0.3526 0.612 0.0072 0.005 1.
#End of TTdata_291361-ICSD