
#(C) 2022 by FIZ Karlsruhe - Leibniz Institute for Information Infrastructure.  All rights reserved.
data_153164-ICSD
_database_code_ICSD 153164
_audit_creation_date 2006-10-01
_chemical_name_common 'Strontium dialuminate'
_chemical_formula_structural 'Sr (Al2 O4)'
_chemical_formula_sum 'Al2 O4 Sr1'
_chemical_name_structure_type BaMgSiO4
_exptl_crystal_density_diffrn 3.49
_diffrn_ambient_temperature 1073.
_citation_title 'Crystal structure of hexagonal Sr Al2 O4 at 1073 K'
loop_
_citation_id
_citation_journal_full
_citation_year
_citation_journal_volume
_citation_page_first
_citation_page_last
_citation_journal_id_ASTM
primary 'Journal of Solid State Chemistry' 2005 178 2709 2714 JSSCBI
loop_
_citation_author_citation_id
_citation_author_name
primary 'Fukuda, K.'
primary 'Fukushima, K.'
_cell_length_a 8.926
_cell_length_b 8.926
_cell_length_c 8.4985
_cell_angle_alpha 90.
_cell_angle_beta 90.
_cell_angle_gamma 120.
_cell_volume 586.39
_cell_formula_units_Z 6
_space_group_name_H-M_alt 'P 63'
_space_group_IT_number 173
loop_
_space_group_symop_id
_space_group_symop_operation_xyz
1 'x-y, x, z+1/2'
2 'y, -x+y, z+1/2'
3 '-x, -y, z+1/2'
4 '-x+y, -x, z'
5 '-y, x-y, z'
6 'x, y, z'
loop_
_atom_type_symbol
_atom_type_oxidation_number
Sr2+ 2
Al3+ 3
O2- -2
loop_
_atom_site_label
_atom_site_type_symbol
_atom_site_symmetry_multiplicity
_atom_site_Wyckoff_symbol
_atom_site_fract_x
_atom_site_fract_y
_atom_site_fract_z
_atom_site_B_iso_or_equiv
_atom_site_occupancy
Sr1 Sr2+ 2 a 0. 0. 0. 3.1 1.
Sr2 Sr2+ 2 b 0.33333 0.66667 0.51 3.2 1.
Sr3 Sr2+ 2 b 0.33333 0.66667 0.008 3.2 1.
Al1 Al3+ 6 c 0.337 0.005 0.315 1.8 1.
Al2 Al3+ 6 c 0.328 0.335 0.207 2.6 1.
O1 O2- 6 c 0.356 0.067 0.49 6.3 1.
O2 O2- 6 c 0.248 0.126 0.202 1.3 1.
O3 O2- 6 c 0.21 0.425 0.261 4.2 1.
O4 O2- 6 c 0.549 0.093 0.237 2.7 1.
#End of TTdata_153164-ICSD