
#(C) 2022 by FIZ Karlsruhe - Leibniz Institute for Information Infrastructure.  All rights reserved.
data_40200-ICSD
_database_code_ICSD 40200
_audit_creation_date 1999-11-30
_chemical_name_common 'Aluminum oxide - delta'
_chemical_formula_structural 'Al Al1.67 O4'
_chemical_formula_sum 'Al2.67 O4'
_exptl_crystal_density_diffrn 3.66
_citation_title
'Etudes structurales d'alumines de transition. I - Alumines gamma et delta'
loop_
_citation_id
_citation_journal_full
_citation_year
_citation_journal_volume
_citation_page_first
_citation_page_last
_citation_journal_id_ASTM
primary 'Materials Research Bulletin' 1990 25 611 621 MRBUAC
loop_
_citation_author_citation_id
_citation_author_name
primary 'Repelin, Y.'
primary 'Husson, E.'
_cell_length_a 5.599
_cell_length_b 5.599
_cell_length_c 23.657
_cell_angle_alpha 90.
_cell_angle_beta 90.
_cell_angle_gamma 90.
_cell_volume 741.62
_cell_formula_units_Z 12
_space_group_name_H-M_alt 'P -4 m 2'
_space_group_IT_number 115
loop_
_space_group_symop_id
_space_group_symop_operation_xyz
1 '-y, -x, -z'
2 'x, -y, z'
3 'y, x, -z'
4 '-x, y, z'
5 'y, -x, -z'
6 '-x, -y, z'
7 '-y, x, -z'
8 'x, y, z'
loop_
_atom_type_symbol
_atom_type_oxidation_number
Al3+ 3
O2- -2
loop_
_atom_site_label
_atom_site_type_symbol
_atom_site_symmetry_multiplicity
_atom_site_Wyckoff_symbol
_atom_site_fract_x
_atom_site_fract_y
_atom_site_fract_z
_atom_site_B_iso_or_equiv
_atom_site_occupancy
Al1 Al3+ 1 c 0.5 0.5 0.5 2.06 1.
Al2 Al3+ 1 a 0. 0. 0. 2.06 1.
Al3 Al3+ 2 f 0.5 0.5 0.16667 2.06 1.
Al4 Al3+ 2 g 0. 0.5 0.75495 2.06 1.
Al5 Al3+ 2 g 0. 0.5 0.08995 2.06 1.
Al6 Al3+ 2 g 0. 0.5 0.41896 2.06 1.
Al7 Al3+ 2 e 0. 0. 0.33333 2.06 1.
Al8 Al3+ 4 k 0.23923 0.5 0.2852 1.28 0.833
Al9 Al3+ 4 k 0.22922 0.5 0.952 1.28 0.833
Al10 Al3+ 4 k 0.2396 0.5 0.63192 1.28 0.833
Al11 Al3+ 4 j 0.23114 0. 0.45235 1.28 0.833
Al12 Al3+ 4 j 0.2278 0. 0.12956 1.28 0.833
Al13 Al3+ 4 j 0.23966 0. 0.79101 1.28 0.833
O1 O2- 4 k 0.23109 0.5 0.37119 1.5 1.
O2 O2- 4 k 0.2049 0.5 0.20137 1.5 1.
O3 O2- 4 k 0.24048 0.5 0.03994 1.5 1.
O4 O2- 4 k 0.21783 0.5 0.87407 1.5 1.
O5 O2- 4 k 0.25632 0.5 0.71443 1.5 1.
O6 O2- 4 k 0.26194 0.5 0.55209 1.5 1.
O7 O2- 4 j 0.26681 0. 0.375 1.5 1.
O8 O2- 4 j 0.22925 0. 0.20833 1.5 1.
O9 O2- 4 j 0.2485 0. 0.0431 1.5 1.
O10 O2- 4 j 0.2245 0. 0.86724 1.5 1.
O11 O2- 4 j 0.26 0. 0.71 1.5 1.
O12 O2- 4 j 0.22452 0. 0.53943 1.5 1.
#End of TTdata_40200-ICSD