
#(C) 2022 by FIZ Karlsruhe - Leibniz Institute for Information Infrastructure.  All rights reserved.
data_247304-ICSD
_database_code_ICSD 247304
_audit_creation_date 2010-08-01
_chemical_name_common 'Aluminium oxide - kappa'
_chemical_formula_structural 'Al2 O3'
_chemical_formula_sum 'Al2 O3'
_chemical_name_structure_type AlFeO3#FeGaO3
_exptl_crystal_density_diffrn 3.75
_citation_title

;
Experimental and ab initio infrared study of chi-, kappa- and alpha-aluminas
formed from gibbsite
;
loop_
_citation_id
_citation_journal_full
_citation_year
_citation_journal_volume
_citation_page_first
_citation_page_last
_citation_journal_id_ASTM
primary 'Journal of Solid State Chemistry' 2010 183 901 908 JSSCBI
loop_
_citation_author_citation_id
_citation_author_name
primary 'Favaro, L.'
primary 'Boumaza, A.'
primary 'Roy, P.'
primary 'Ledion, J.'
primary 'Sattonay, G.'
primary 'Brubach, J.B.'
primary 'Huntz, A.M.'
primary 'Tetot, R.'
_cell_length_a 4.8437
_cell_length_b 8.33
_cell_length_c 8.9547
_cell_angle_alpha 90.
_cell_angle_beta 90.
_cell_angle_gamma 90.
_cell_volume 361.3
_cell_formula_units_Z 8
_space_group_name_H-M_alt 'P n a 21'
_space_group_IT_number 33
loop_
_space_group_symop_id
_space_group_symop_operation_xyz
1 'x+1/2, -y+1/2, z'
2 '-x+1/2, y+1/2, z+1/2'
3 '-x, -y, z+1/2'
4 'x, y, z'
loop_
_atom_type_symbol
_atom_type_oxidation_number
Al3+ 3
O2- -2
loop_
_atom_site_label
_atom_site_type_symbol
_atom_site_symmetry_multiplicity
_atom_site_Wyckoff_symbol
_atom_site_fract_x
_atom_site_fract_y
_atom_site_fract_z
_atom_site_B_iso_or_equiv
_atom_site_occupancy
Al1 Al3+ 4 a 0.321 0.158 0. . 1.
Al2 Al3+ 4 a 0.185 0.343 0.713 . 1.
Al3 Al3+ 4 a 0.188 0.351 0.303 . 1.
Al4 Al3+ 4 a 0.168 0.03 0.501 . 1.
O1 O2- 4 a 0.171 0.331 0.107 . 1.
O2 O2- 4 a 0.025 0.491 0.871 . 1.
O3 O2- 4 a 0.028 0.165 0.362 . 1.
O4 O2- 4 a 0.015 0.827 0.379 . 1.
O5 O2- 4 a 0.139 0.67 0.134 . 1.
O6 O2- 4 a 0.664 0.501 0.1 . 1.
#End of TTdata_247304-ICSD