
#(C) 2022 by FIZ Karlsruhe - Leibniz Institute for Information Infrastructure.  All rights reserved.
data_239757-ICSD
_database_code_ICSD 239757
_audit_creation_date 2016-08-01
_chemical_name_common 'Aluminium strontium oxide (12/1/19)'
_chemical_formula_structural 'Al12 Sr O19'
_chemical_formula_sum 'Al12 O19 Sr1'
_chemical_name_structure_type M_type_ferrite#BaFe12O19
_exptl_crystal_density_diffrn 3.98
_diffrn_ambient_temperature 300.
_citation_title

;
Structural studies of Ca Al12 O19, Sr Al12 O19, La2/3+delta Al12-delta O19,
and Ca Al10 Ni Ti O19 with the hibonite structure; indications of an unusual
type of ferroelectricity
;
loop_
_citation_id
_citation_journal_full
_citation_year
_citation_journal_volume
_citation_page_first
_citation_page_last
_citation_journal_id_ASTM
primary 'Zeitschrift fuer Naturforschung, B: A Journal of Chemical Sciences'
2016 71 475 484 ZNBSEN
loop_
_citation_author_citation_id
_citation_author_name
primary 'Li, Jun'
primary 'Medina, Elena A.'
primary 'Stalick, Judith K.'
primary 'Sleight, Arthur W.'
primary 'Subramanian, M.A.'
_cell_length_a 5.5766
_cell_length_b 5.5766
_cell_length_c 22.143
_cell_angle_alpha 90.
_cell_angle_beta 90.
_cell_angle_gamma 120.
_cell_volume 596.36
_cell_formula_units_Z 2
_space_group_name_H-M_alt 'P 63/m m c'
_space_group_IT_number 194
loop_
_space_group_symop_id
_space_group_symop_operation_xyz
1 'x, x-y, -z+1/2'
2 '-x+y, y, -z+1/2'
3 '-y, -x, -z+1/2'
4 '-x+y, -x, -z+1/2'
5 '-y, x-y, -z+1/2'
6 'x, y, -z+1/2'
7 '-x, -x+y, z+1/2'
8 'x-y, -y, z+1/2'
9 'y, x, z+1/2'
10 'x-y, x, z+1/2'
11 'y, -x+y, z+1/2'
12 '-x, -y, z+1/2'
13 '-x, -x+y, -z'
14 'x-y, -y, -z'
15 'y, x, -z'
16 'x-y, x, -z'
17 'y, -x+y, -z'
18 '-x, -y, -z'
19 'x, x-y, z'
20 '-x+y, y, z'
21 '-y, -x, z'
22 '-x+y, -x, z'
23 '-y, x-y, z'
24 'x, y, z'
loop_
_atom_type_symbol
_atom_type_oxidation_number
Sr2+ 2
Al3+ 3
O2- -2
loop_
_atom_site_label
_atom_site_type_symbol
_atom_site_symmetry_multiplicity
_atom_site_Wyckoff_symbol
_atom_site_fract_x
_atom_site_fract_y
_atom_site_fract_z
_atom_site_U_iso_or_equiv
_atom_site_occupancy
Sr1 Sr2+ 2 d 0.33333 0.66667 0.75 0.0097 1.
Al1 Al3+ 2 a 0. 0. 0. 0.003 1.
Al2 Al3+ 4 e 0. 0. 0.2356 0.009 0.5
Al3 Al3+ 4 f 0.33333 0.66667 0.02678 0.001 1.
Al4 Al3+ 4 f 0.33333 0.66667 0.18825 0.0085 1.
Al5 Al3+ 12 k 0.1693 0.3387 0.6078 0.0077 1.
O1 O2- 4 e 0. 0. 0.1485 0.0002 1.
O2 O2- 4 f 0.33333 0.66667 0.55556 0.0015 1.
O3 O2- 6 h 0.1828 0.3655 0.25 0.02181 1.
O4 O2- 12 k 0.15525 0.3105 0.05147 0.0058 1.
O5 O2- 12 k 0.5022 0.0045 0.14805 0.00702 1.
loop_
_atom_site_aniso_label
_atom_site_aniso_type_symbol
_atom_site_aniso_U_11
_atom_site_aniso_U_22
_atom_site_aniso_U_33
_atom_site_aniso_U_12
_atom_site_aniso_U_13
_atom_site_aniso_U_23
Sr1 Sr2+ 0.0011 0.0011 0.0269 0.0006 0. 0.
O3 O2- 0.0127 0.0027 0.0466 0.0014 0. 0.
#End of TTdata_239757-ICSD