
#(C) 2022 by FIZ Karlsruhe - Leibniz Institute for Information Infrastructure.  All rights reserved.
data_23660-ICSD
_database_code_ICSD 23660
_audit_creation_date 1980-01-01
_chemical_name_common 'Aluminium oxide - kappa'
_chemical_formula_structural '(Al2 O3)5.333'
_chemical_formula_sum 'Al10.666 O15.999'
_exptl_crystal_density_diffrn 3.76
_citation_title
'The Crystal Structure of kappa'-Al2 O3, the New Intermediate Phase'
loop_
_citation_id
_citation_journal_full
_citation_year
_citation_journal_volume
_citation_page_first
_citation_page_last
_citation_journal_id_ASTM
primary 'Bulletin of the Chemical Society of Japan' 1971 44 1567 1570 BCSJA8
loop_
_citation_author_citation_id
_citation_author_name
primary 'Okumiya, M.'
primary 'Yamaguchi, G.'
_cell_length_a 5.544
_cell_length_b 5.544
_cell_length_c 9.024
_cell_angle_alpha 90.
_cell_angle_beta 90.
_cell_angle_gamma 120.
_cell_volume 240.2
_cell_formula_units_Z 1
_space_group_name_H-M_alt 'P 63 m c'
_space_group_IT_number 186
loop_
_space_group_symop_id
_space_group_symop_operation_xyz
1 '-x, -x+y, z+1/2'
2 'x-y, -y, z+1/2'
3 'y, x, z+1/2'
4 'x-y, x, z+1/2'
5 'y, -x+y, z+1/2'
6 '-x, -y, z+1/2'
7 'x, x-y, z'
8 '-x+y, y, z'
9 '-y, -x, z'
10 '-x+y, -x, z'
11 '-y, x-y, z'
12 'x, y, z'
loop_
_atom_type_symbol
_atom_type_oxidation_number
Al3+ 3
O2- -2
loop_
_atom_site_label
_atom_site_type_symbol
_atom_site_symmetry_multiplicity
_atom_site_Wyckoff_symbol
_atom_site_fract_x
_atom_site_fract_y
_atom_site_fract_z
_atom_site_B_iso_or_equiv
_atom_site_occupancy
Al1 Al3+ 2 b 0.33333 0.66667 0.056 0.72 0.51
Al2 Al3+ 6 c 0.833 0.167 0.061 0.72 0.08
Al3 Al3+ 2 b 0.33333 0.66667 0.648 0.72 0.98
Al4 Al3+ 6 c 0.156 0.844 0.118 0.72 0.34
Al5 Al3+ 6 c 0.169 0.831 0.363 0.72 0.67
Al6 Al3+ 6 c 0.884 0.116 0.448 0.72 0.12
O1 O2- 2 a 0. 0. 0. 0.72 1.
O2 O2- 6 c 0.5 0.5 0.006 0.72 1.
O3 O2- 6 c 0.832 0.168 0.256 0.72 1.
O4 O2- 2 b 0.33333 0.66667 0.254 0.72 1.
#End of TTdata_23660-ICSD