
#(C) 2022 by FIZ Karlsruhe - Leibniz Institute for Information Infrastructure.  All rights reserved.
data_184967-ICSD
_database_code_ICSD 184967
_audit_creation_date 2013-02-01
_chemical_name_common 'Strontium dodecaaluminate'
_chemical_formula_structural 'Sr (Al12 O19)'
_chemical_formula_sum 'Al12 O19 Sr1'
_chemical_name_structure_type M_type_ferrite#BaFe12O19
_exptl_crystal_density_diffrn 4.03
_citation_title

;
Physical and magnetic properties of highly aluminum doped strontium ferrite
nanoparticles prepared by auto-combustion route
;
_publ_section_comment 'Cell and Type only determined'
loop_
_citation_id
_citation_journal_full
_citation_year
_citation_journal_volume
_citation_page_first
_citation_page_last
_citation_journal_id_ASTM
primary 'Journal of Magnetism and Magnetic Materials' 2012 324 2602 2608 JMMMDC
loop_
_citation_author_citation_id
_citation_author_name
primary 'Luo, H.'
primary 'Rai, B.-K.'
primary 'Mishra, S.R.'
primary 'Nguyen, V.V.'
primary 'Liu, J.-P.'
_cell_length_a 5.564
_cell_length_b 5.564
_cell_length_c 22.002
_cell_angle_alpha 90.
_cell_angle_beta 90.
_cell_angle_gamma 120.
_cell_volume 589.88
_cell_formula_units_Z 2
_space_group_name_H-M_alt 'P 63/m m c'
_space_group_IT_number 194
loop_
_space_group_symop_id
_space_group_symop_operation_xyz
1 'x, x-y, -z+1/2'
2 '-x+y, y, -z+1/2'
3 '-y, -x, -z+1/2'
4 '-x+y, -x, -z+1/2'
5 '-y, x-y, -z+1/2'
6 'x, y, -z+1/2'
7 '-x, -x+y, z+1/2'
8 'x-y, -y, z+1/2'
9 'y, x, z+1/2'
10 'x-y, x, z+1/2'
11 'y, -x+y, z+1/2'
12 '-x, -y, z+1/2'
13 '-x, -x+y, -z'
14 'x-y, -y, -z'
15 'y, x, -z'
16 'x-y, x, -z'
17 'y, -x+y, -z'
18 '-x, -y, -z'
19 'x, x-y, z'
20 '-x+y, y, z'
21 '-y, -x, z'
22 '-x+y, -x, z'
23 '-y, x-y, z'
24 'x, y, z'
loop_
_atom_type_symbol
_atom_type_oxidation_number
Sr2+ 2
Al3+ 3
O2- -2
loop_
_atom_site_label
_atom_site_type_symbol
_atom_site_symmetry_multiplicity
_atom_site_Wyckoff_symbol
_atom_site_fract_x
_atom_site_fract_y
_atom_site_fract_z
_atom_site_B_iso_or_equiv
_atom_site_occupancy
Sr1 Sr2+ 2 d 0.33333 0.66667 0.75 . 1.
Al1 Al3+ 2 a 0. 0. 0. . 1.
Al2 Al3+ 2 b 0. 0. 0.25 . 1.
Al3 Al3+ 4 f 0.33333 0.66667 0.028 . 1.
Al4 Al3+ 4 f 0.33333 0.66667 0.188 . 1.
Al5 Al3+ 12 k 0.168 0.336 0.608 . 1.
O1 O2- 4 e 0. 0. 0.148 . 1.
O2 O2- 4 f 0.33333 0.66667 0.554 . 1.
O3 O2- 6 h 0.183 0.366 0.25 . 1.
O4 O2- 12 k 0.155 0.31 0.052 . 1.
O5 O2- 12 k 0.502 0.004 0.148 . 1.
#End of TTdata_184967-ICSD