
#(C) 2022 by FIZ Karlsruhe - Leibniz Institute for Information Infrastructure.  All rights reserved.
data_26466-ICSD
_database_code_ICSD 26466
_audit_creation_date 1981-12-31
_audit_update_record 2010-02-01
_chemical_name_common 'Strontium dialuminium oxide'
_chemical_formula_structural 'Sr Al2 O4'
_chemical_formula_sum 'Al2 O4 Sr1'
_chemical_name_structure_type SrAl2O4
_exptl_crystal_density_diffrn 3.56
_citation_title 'Zur Struktur von monoklinem Sr Al2 O4'
loop_
_citation_id
_citation_journal_full
_citation_year
_citation_journal_volume
_citation_page_first
_citation_page_last
_citation_journal_id_ASTM
primary 'Zeitschrift fuer Anorganische und Allgemeine Chemie (1950) (DE)' 1981
475 205 210 ZAACAB
loop_
_citation_author_citation_id
_citation_author_name
primary 'Schulze, A.R.'
primary 'Mueller Buschbaum, H.'
_cell_length_a 5.163
_cell_length_b 8.816
_cell_length_c 8.447
_cell_angle_alpha 90.
_cell_angle_beta 93.42
_cell_angle_gamma 90.
_cell_volume 383.8
_cell_formula_units_Z 4
_space_group_name_H-M_alt 'P 1 21 1'
_space_group_IT_number 4
loop_
_space_group_symop_id
_space_group_symop_operation_xyz
1 '-x, y+1/2, -z'
2 'x, y, z'
loop_
_atom_type_symbol
_atom_type_oxidation_number
Sr2+ 2
Al3+ 3
O2- -2
loop_
_atom_site_label
_atom_site_type_symbol
_atom_site_symmetry_multiplicity
_atom_site_Wyckoff_symbol
_atom_site_fract_x
_atom_site_fract_y
_atom_site_fract_z
_atom_site_B_iso_or_equiv
_atom_site_occupancy
Sr1 Sr2+ 2 a 0.2507 0. 0.4905 0.46 1.
Sr2 Sr2+ 2 a 0.202 0.0071 0.0292 0.4 1.
Al1 Al3+ 2 a 0.7158 0.1686 0.1895 0.8 1.
Al2 Al3+ 2 a 0.2713 0.6606 0.2003 0.68 1.
Al3 Al3+ 2 a 0.2236 0.3315 0.7087 0.7 1.
Al4 Al3+ 2 a 0.2025 0.3293 0.3191 0.74 1.
O1 O2- 2 a 0.436 0.826 0.265 0.71 1.
O2 O2- 2 a 0.411 0.184 0.264 1.31 1.
O3 O2- 2 a 0.345 0.507 0.327 1.24 1.
O4 O2- 2 a 0.102 0.516 0.735 0.82 1.
O5 O2- 2 a 0.064 0.203 0.826 1.14 1.
O6 O2- 2 a 0.906 0.331 0.206 0.89 1.
O7 O2- 2 a 0.124 0.281 0.513 0.95 1.
O8 O2- 2 a 0.349 0.612 0.01 1.08 1.
#End of TTdata_26466-ICSD