
#(C) 2022 by FIZ Karlsruhe - Leibniz Institute for Information Infrastructure.  All rights reserved.
data_16751-ICSD
_database_code_ICSD 16751
_audit_creation_date 1980-01-01
_audit_update_record 2002-04-01
_chemical_name_common 'Strontium tetraaluminium oxide'
_chemical_formula_structural '(Sr O) (Al2 O3)2'
_chemical_formula_sum 'Al4 O7 Sr1'
_chemical_name_structure_type CaAl4O7
_exptl_crystal_density_diffrn 3.27
_citation_title
'The optical properties and structures of Ca O (Al2 O3) and Ca O (Al2 O3)2'
loop_
_citation_id
_citation_journal_full
_citation_year
_citation_journal_volume
_citation_page_first
_citation_page_last
_citation_journal_id_ASTM
primary 'Acta Crystallographica' 1958 11 444 445 ACCRA9
loop_
_citation_author_citation_id
_citation_author_name
primary 'Boyko, Z.R.'
primary 'Wisnyi, L.G.'
_cell_length_a 13.04
_cell_length_b 9.01
_cell_length_c 5.55
_cell_angle_alpha 90.
_cell_angle_beta 106.502
_cell_angle_gamma 90.
_cell_volume 625.21
_cell_formula_units_Z 4
_space_group_name_H-M_alt 'C 1 2/c 1'
_space_group_IT_number 15
loop_
_space_group_symop_id
_space_group_symop_operation_xyz
1 'x, -y, z+1/2'
2 '-x, -y, -z'
3 '-x, y, -z+1/2'
4 'x, y, z'
5 'x+1/2, -y+1/2, z+1/2'
6 '-x+1/2, -y+1/2, -z'
7 '-x+1/2, y+1/2, -z+1/2'
8 'x+1/2, y+1/2, z'
loop_
_atom_type_symbol
_atom_type_oxidation_number
Sr2+ 2
Al3+ 3
O2- -2
loop_
_atom_site_label
_atom_site_type_symbol
_atom_site_symmetry_multiplicity
_atom_site_Wyckoff_symbol
_atom_site_fract_x
_atom_site_fract_y
_atom_site_fract_z
_atom_site_B_iso_or_equiv
_atom_site_occupancy
Sr1 Sr2+ 4 e 0. 0.31 0.25 . 1.
Al1 Al3+ 8 f 0.331 0.086 0.205 . 1.
Al2 Al3+ 8 f 0.378 0.441 0.243 . 1.
O1 O2- 4 e 0. 0.026 0.25 . 1.
O2 O2- 8 f 0.117 0.452 0.044 . 1.
O3 O2- 8 f 0.373 0.26 0.325 . 1.
O4 O2- 8 f 0.188 0.053 0.098 . 1.
#End of TTdata_16751-ICSD