
#(C) 2022 by FIZ Karlsruhe - Leibniz Institute for Information Infrastructure.  All rights reserved.
data_84375-ICSD
_database_code_ICSD 84375
_audit_creation_date 1999-01-19
_chemical_name_common 'Aluminium oxide - kappa'
_chemical_formula_structural 'Al2 O3'
_chemical_formula_sum 'Al2 O3'
_chemical_name_structure_type AlFeO3#FeGaO3
_exptl_crystal_density_diffrn 3.75
_citation_title

;
Crystal structure of kappa-alumina: an X-ray powder diffraction, TEM and NMR
study
;
loop_
_citation_id
_citation_journal_full
_citation_year
_citation_journal_volume
_citation_page_first
_citation_page_last
_citation_journal_id_ASTM
primary 'Journal of Materials Chemistry' 1997 7 1049 1056 JMACEP
loop_
_citation_author_citation_id
_citation_author_name
primary 'Ollivier, B.'
primary 'Retoux, R.'
primary 'Lacorre, P.'
primary 'Massiot, D.'
primary 'Ferey, G.'
_cell_length_a 4.8437
_cell_length_b 8.33
_cell_length_c 8.9547
_cell_angle_alpha 90.
_cell_angle_beta 90.
_cell_angle_gamma 90.
_cell_volume 361.3
_cell_formula_units_Z 8
_space_group_name_H-M_alt 'P n a 21'
_space_group_IT_number 33
loop_
_space_group_symop_id
_space_group_symop_operation_xyz
1 'x+1/2, -y+1/2, z'
2 '-x+1/2, y+1/2, z+1/2'
3 '-x, -y, z+1/2'
4 'x, y, z'
loop_
_atom_type_symbol
_atom_type_oxidation_number
Al3+ 3
O2- -2
loop_
_atom_site_label
_atom_site_type_symbol
_atom_site_symmetry_multiplicity
_atom_site_Wyckoff_symbol
_atom_site_fract_x
_atom_site_fract_y
_atom_site_fract_z
_atom_site_B_iso_or_equiv
_atom_site_occupancy
Al1 Al3+ 4 a 0.3213 0.1584 0. 0.41 1.
Al2 Al3+ 4 a 0.1846 0.3432 0.7132 1.32 1.
Al3 Al3+ 4 a 0.1885 0.3511 0.3028 0.16 1.
Al4 Al3+ 4 a 0.1677 0.0304 0.5007 0.35 1.
O1 O2- 4 a 0.171 0.3313 0.1073 0.27 1.
O2 O2- 4 a 0.0248 0.4908 0.8708 0.27 1.
O3 O2- 4 a 0.0283 0.1647 0.3619 0.27 1.
O4 O2- 4 a 0.0145 0.8272 0.3788 0.27 1.
O5 O2- 4 a 0.1392 0.6699 0.1338 0.27 1.
O6 O2- 4 a 0.664 0.5008 0.1 0.27 1.
#End of TTdata_84375-ICSD