
#(C) 2022 by FIZ Karlsruhe - Leibniz Institute for Information Infrastructure.  All rights reserved.
data_66062-ICSD
_database_code_ICSD 66062
_audit_creation_date 1991-07-10
_audit_update_record 2007-08-01
_chemical_name_common 'Tristrontium cyclo-hexaaluminate'
_chemical_formula_structural 'Sr9 (Al6 O18)'
_chemical_formula_sum 'Al6 O18 Sr9'
_chemical_name_structure_type Ca9Al6O18
_exptl_crystal_density_diffrn 4.13
_citation_title
'Tristrontium dialuminium hexaoxide: An intricate superstructure of perovskite'
loop_
_citation_id
_citation_journal_full
_citation_year
_citation_journal_volume
_citation_page_first
_citation_page_last
_citation_journal_id_ASTM
primary 'Inorganic Chemistry' 1990 29 4768 4771 INOCAJ
loop_
_citation_author_citation_id
_citation_author_name
primary 'Alonso, J.A.'
primary 'Rasines, I.'
primary 'Soubeyroux, J.L.'
_cell_length_a 15.8476
_cell_length_b 15.8476
_cell_length_c 15.8476
_cell_angle_alpha 90.
_cell_angle_beta 90.
_cell_angle_gamma 90.
_cell_volume 3980.07
_cell_formula_units_Z 8
_space_group_name_H-M_alt 'P a -3'
_space_group_IT_number 205
loop_
_space_group_symop_id
_space_group_symop_operation_xyz
1 '-z+1/2, x+1/2, y'
2 'z+1/2, x, -y+1/2'
3 'z, -x+1/2, y+1/2'
4 '-z, -x, -y'
5 'y, -z+1/2, x+1/2'
6 '-y+1/2, z+1/2, x'
7 'y+1/2, z, -x+1/2'
8 '-y, -z, -x'
9 'x+1/2, y, -z+1/2'
10 'x, -y+1/2, z+1/2'
11 '-x+1/2, y+1/2, z'
12 '-x, -y, -z'
13 'z+1/2, -x+1/2, -y'
14 '-z+1/2, -x, y+1/2'
15 '-z, x+1/2, -y+1/2'
16 'z, x, y'
17 '-y, z+1/2, -x+1/2'
18 'y+1/2, -z+1/2, -x'
19 '-y+1/2, -z, x+1/2'
20 'y, z, x'
21 '-x+1/2, -y, z+1/2'
22 '-x, y+1/2, -z+1/2'
23 'x+1/2, -y+1/2, -z'
24 'x, y, z'
loop_
_atom_type_symbol
_atom_type_oxidation_number
Sr2+ 2
Al3+ 3
O2- -2
loop_
_atom_site_label
_atom_site_type_symbol
_atom_site_symmetry_multiplicity
_atom_site_Wyckoff_symbol
_atom_site_fract_x
_atom_site_fract_y
_atom_site_fract_z
_atom_site_B_iso_or_equiv
_atom_site_occupancy
Sr1 Sr2+ 4 a 0. 0. 0. 1.51 1.
Sr2 Sr2+ 4 b 0.5 0.5 0.5 1.11 1.
Sr3 Sr2+ 8 c 0.2521 0.2521 0.2521 0.45 1.
Sr4 Sr2+ 8 c 0.3764 0.3765 0.3765 1.13 1.
Sr5 Sr2+ 24 d 0.1332 0.1345 0.3745 0.94 1.
Sr6 Sr2+ 24 d 0.1242 0.3793 0.3852 0.67 1.
Al1 Al3+ 24 d 0.0164 0.0184 0.252 0.83 1.
Al2 Al3+ 24 d 0.0041 0.2392 0.2345 0.7 1.
O1 O2- 24 d 0.0032 0.2631 0.1257 0.93 1.
O2 O2- 24 d 0.1275 0.2448 0.493 0.79 1.
O3 O2- 24 d 0.1001 0.2697 0.2762 0.96 1.
O4 O2- 24 d 0.2352 0.4065 0.2804 0.79 1.
O5 O2- 24 d 0.0261 0.4812 0.1542 1.07 1.
O6 O2- 24 d 0.0175 0.4823 0.3456 0.85 1.
#End of TTdata_66062-ICSD