
#(C) 2022 by FIZ Karlsruhe - Leibniz Institute for Information Infrastructure.  All rights reserved.
data_2817-ICSD
_database_code_ICSD 2817
_audit_creation_date 1980-01-01
_audit_update_record 2009-08-01
_chemical_name_common 'Strontium tetraaluminium oxide'
_chemical_formula_structural 'Sr Al4 O7'
_chemical_formula_sum 'Al4 O7 Sr1'
_chemical_name_structure_type CaAl4O7
_exptl_crystal_density_diffrn 3.28
_citation_title 'The refined structure of Sr O (Al2 O3)2'
loop_
_citation_id
_citation_journal_full
_citation_year
_citation_journal_volume
_citation_page_first
_citation_page_last
_citation_journal_id_ASTM
primary

;
Acta Crystallographica, Section B: Structural Crystallography and Crystal
Chemistry
; 1972 28 2525 2526 ACBCAR
loop_
_citation_author_citation_id
_citation_author_name
primary 'Lindop, A.J.'
primary 'Goodwin, D.W.'
_cell_length_a 13.0389
_cell_length_b 9.0113
_cell_length_c 5.5358
_cell_angle_alpha 90.
_cell_angle_beta 106.7
_cell_angle_gamma 90.
_cell_volume 623.01
_cell_formula_units_Z 4
_space_group_name_H-M_alt 'C 1 2/c 1'
_space_group_IT_number 15
loop_
_space_group_symop_id
_space_group_symop_operation_xyz
1 'x, -y, z+1/2'
2 '-x, -y, -z'
3 '-x, y, -z+1/2'
4 'x, y, z'
5 'x+1/2, -y+1/2, z+1/2'
6 '-x+1/2, -y+1/2, -z'
7 '-x+1/2, y+1/2, -z+1/2'
8 'x+1/2, y+1/2, z'
loop_
_atom_type_symbol
_atom_type_oxidation_number
Sr2+ 2
O2- -2
Al3+ 3
O2- -2
loop_
_atom_site_label
_atom_site_type_symbol
_atom_site_symmetry_multiplicity
_atom_site_Wyckoff_symbol
_atom_site_fract_x
_atom_site_fract_y
_atom_site_fract_z
_atom_site_B_iso_or_equiv
_atom_site_occupancy
Sr1 Sr2+ 4 e 0. 0.3099 0.25 . 1.
O1 O2- 4 e 0. 0.0253 0.25 . 1.
Al1 Al3+ 8 f 0.3314 0.0873 0.2061 . 1.
Al2 Al3+ 8 f 0.3788 0.44 0.2356 . 1.
O2 O2- 8 f 0.1188 0.4626 0.0442 . 1.
O3 O2- 8 f 0.3754 0.2582 0.3297 . 1.
O4 O2- 8 f 0.1899 0.0554 0.0965 . 1.
loop_
_atom_site_aniso_label
_atom_site_aniso_type_symbol
_atom_site_aniso_beta_11
_atom_site_aniso_beta_22
_atom_site_aniso_beta_33
_atom_site_aniso_beta_12
_atom_site_aniso_beta_13
_atom_site_aniso_beta_23
Sr1 Sr2+ 0.0019 0.0033 0.0097 0. 0.0005 0.
O1 O2- 0.0015 0.0021 0.0117 0. 0.0005 0.
Al1 Al3+ 0.0013 0.0027 0.0079 0.0002 0.0004 0.0001
Al2 Al3+ 0.0014 0.0027 0.0085 0. 0.0007 -0.0006
O2 O2- 0.002 0.0036 0.0076 0.0007 0.0012 0.0005
O3 O2- 0.0026 0.0023 0.007 -0.0001 -0.0009 -0.0007
O4 O2- 0.002 0.0045 0.0065 0.0001 0.0006 -0.0005
#End of TTdata_2817-ICSD