
#(C) 2022 by FIZ Karlsruhe - Leibniz Institute for Information Infrastructure.  All rights reserved.
data_2006-ICSD
_database_code_ICSD 2006
_audit_creation_date 1980-01-01
_audit_update_record 2000-07-15
_chemical_name_common 'Strontium dodecaaluminium oxide'
_chemical_formula_structural 'Sr O (Al2 O3)6'
_chemical_formula_sum 'Al12 O19 Sr1'
_chemical_name_structure_type M_type_ferrite#BaFe12O19
_exptl_crystal_density_diffrn 4.04
_citation_title 'The refined structure of Sr O (Al2 O3)6'
loop_
_citation_id
_citation_journal_full
_citation_year
_citation_journal_volume
_citation_page_first
_citation_page_last
_citation_journal_id_ASTM
primary

;
Acta Crystallographica, Section B: Structural Crystallography and Crystal
Chemistry
; 1975 31 2940 2941 ACBCAR
loop_
_citation_author_citation_id
_citation_author_name
primary 'Lindop, A.J.'
primary 'Matthews, C.'
primary 'Goodwin, D.W.'
_cell_length_a 5.562
_cell_length_b 5.562
_cell_length_c 21.9719
_cell_angle_alpha 90.
_cell_angle_beta 90.
_cell_angle_gamma 120.
_cell_volume 588.65
_cell_formula_units_Z 2
_space_group_name_H-M_alt 'P 63/m m c'
_space_group_IT_number 194
loop_
_space_group_symop_id
_space_group_symop_operation_xyz
1 'x, x-y, -z+1/2'
2 '-x+y, y, -z+1/2'
3 '-y, -x, -z+1/2'
4 '-x+y, -x, -z+1/2'
5 '-y, x-y, -z+1/2'
6 'x, y, -z+1/2'
7 '-x, -x+y, z+1/2'
8 'x-y, -y, z+1/2'
9 'y, x, z+1/2'
10 'x-y, x, z+1/2'
11 'y, -x+y, z+1/2'
12 '-x, -y, z+1/2'
13 '-x, -x+y, -z'
14 'x-y, -y, -z'
15 'y, x, -z'
16 'x-y, x, -z'
17 'y, -x+y, -z'
18 '-x, -y, -z'
19 'x, x-y, z'
20 '-x+y, y, z'
21 '-y, -x, z'
22 '-x+y, -x, z'
23 '-y, x-y, z'
24 'x, y, z'
loop_
_atom_type_symbol
_atom_type_oxidation_number
Sr2+ 2
Al3+ 3
O2- -2
loop_
_atom_site_label
_atom_site_type_symbol
_atom_site_symmetry_multiplicity
_atom_site_Wyckoff_symbol
_atom_site_fract_x
_atom_site_fract_y
_atom_site_fract_z
_atom_site_B_iso_or_equiv
_atom_site_occupancy
Sr1 Sr2+ 2 d 0.33333 0.66667 0.75 . 1.
Al1 Al3+ 2 a 0. 0. 0. . 1.
Al2 Al3+ 2 b 0. 0. 0.25 . 1.
Al3 Al3+ 4 f 0.33333 0.66667 0.0276 . 1.
Al4 Al3+ 12 k 0.1685 0.337 0.6082 . 1.
Al5 Al3+ 4 f 0.33333 0.66667 0.1903 . 1.
O1 O2- 4 e 0. 0. 0.1481 . 1.
O2 O2- 4 f 0.33333 0.66667 0.5538 . 1.
O3 O2- 6 h 0.1822 0.3644 0.25 . 1.
O4 O2- 12 k 0.1552 0.3104 0.0523 . 1.
O5 O2- 12 k 0.5025 0.005 0.1476 . 1.
loop_
_atom_site_aniso_label
_atom_site_aniso_type_symbol
_atom_site_aniso_beta_11
_atom_site_aniso_beta_22
_atom_site_aniso_beta_33
_atom_site_aniso_beta_12
_atom_site_aniso_beta_13
_atom_site_aniso_beta_23
Sr1 Sr2+ 0.01025 0.01025 0.007823 0.005123 0. 0.
Al1 Al3+ 0.006884 0.006884 0.002917 0.003442 0. 0.
Al2 Al3+ 0.00595 0.00595 0.05551 0.002975 0. 0.
Al3 Al3+ 0.006842 0.006842 0.00239 0.003421 0. 0.
Al4 Al3+ 0.00627 0.006426 0.00376 0.003213 0.00035 0.000175
Al5 Al3+ 0.006789 0.006789 0.003976 0.003395 0. 0.
O1 O2- 0.00511 0.00511 0.004221 0.002555 0. 0.
O2 O2- 0.006427 0.006427 0.000377 0.003214 0. 0.
O3 O2- 0.01081 0.007742 0.002559 0.003871 0. 0.
O4 O2- 0.006232 0.004701 0.00312 0.002351 0.001174 0.000587
O5 O2- 0.006045 0.006684 0.00555 0.003342 0.002229 0.001114
#End of TTdata_2006-ICSD