
#(C) 2022 by FIZ Karlsruhe - Leibniz Institute for Information Infrastructure.  All rights reserved.
data_83016-ICSD
_database_code_ICSD 83016
_audit_creation_date 1998-06-26
_chemical_name_common 'Lithium pentaaluminium oxide - II'
_chemical_formula_structural 'Li Al5 O8'
_chemical_formula_sum 'Al5 Li1 O8'
_chemical_name_structure_type Spinel#LiFe5O8
_exptl_crystal_density_diffrn 3.63
_citation_title 'The crystal structures of Li Al5 O8 and Li2 Al4 O7'
loop_
_citation_id
_citation_journal_full
_citation_year
_citation_journal_volume
_citation_page_first
_citation_page_last
_citation_journal_id_ASTM
primary 'Neues Jahrbuch fuer Mineralogie, Monatshefte' 1996 1996 344 350 NJMMAW
loop_
_citation_author_citation_id
_citation_author_name
primary 'Kriens, M.'
primary 'Adiwidjaja, G.'
primary 'Guse, W.'
primary 'Klaska, K.H.'
primary 'Lathe, C.'
primary 'Saalfeld, H.'
_cell_length_a 7.903
_cell_length_b 7.903
_cell_length_c 7.903
_cell_angle_alpha 90.
_cell_angle_beta 90.
_cell_angle_gamma 90.
_cell_volume 493.6
_cell_formula_units_Z 4
_space_group_name_H-M_alt 'P 41 3 2'
_space_group_IT_number 213
loop_
_space_group_symop_id
_space_group_symop_operation_xyz
1 '-z+1/4, y+3/4, x+1/4'
2 'z+1/4, -y+1/4, x+3/4'
3 'z+3/4, y+1/4, -x+1/4'
4 '-z+3/4, -y+3/4, -x+3/4'
5 'y+3/4, x+1/4, -z+1/4'
6 '-y+1/4, x+3/4, z+1/4'
7 'y+1/4, -x+1/4, z+3/4'
8 '-y+3/4, -x+3/4, -z+3/4'
9 'x+1/4, -z+1/4, y+3/4'
10 'x+3/4, z+1/4, -y+1/4'
11 '-x+1/4, z+3/4, y+1/4'
12 '-x+3/4, -z+3/4, -y+3/4'
13 'z+1/2, -x+1/2, -y'
14 '-z+1/2, -x, y+1/2'
15 '-z, x+1/2, -y+1/2'
16 'z, x, y'
17 '-y, z+1/2, -x+1/2'
18 'y+1/2, -z+1/2, -x'
19 '-y+1/2, -z, x+1/2'
20 'y, z, x'
21 '-x+1/2, -y, z+1/2'
22 '-x, y+1/2, -z+1/2'
23 'x+1/2, -y+1/2, -z'
24 'x, y, z'
loop_
_atom_type_symbol
_atom_type_oxidation_number
Al3+ 3
Li1+ 1
Al3+ 3
Li1+ 1
O2- -2
loop_
_atom_site_label
_atom_site_type_symbol
_atom_site_symmetry_multiplicity
_atom_site_Wyckoff_symbol
_atom_site_fract_x
_atom_site_fract_y
_atom_site_fract_z
_atom_site_B_iso_or_equiv
_atom_site_occupancy
Al1 Al3+ 8 c 0.0024 0.0024 0.0024 . 1.
Al2 Al3+ 4 a 0.375 0.375 0.375 . 0.043
Li1 Li1+ 4 a 0.375 0.375 0.375 . 0.957
Al3 Al3+ 12 d 0.125 0.1314 0.3814 . 0.986
Li2 Li1+ 12 d 0.125 0.1314 0.3814 . 0.014
O1 O2- 24 e 0.1171 0.3648 0.3656 . 1.
O2 O2- 8 c 0.1355 0.1355 0.1355 . 1.
#End of TTdata_83016-ICSD