
#(C) 2022 by FIZ Karlsruhe - Leibniz Institute for Information Infrastructure.  All rights reserved.
data_160299-ICSD
_database_code_ICSD 160299
_audit_creation_date 2008-08-01
_chemical_name_common 'Strontium dialuminate -  HT'
_chemical_formula_structural 'Sr (Al2 O4)'
_chemical_formula_sum 'Al2 O4 Sr1'
_chemical_name_structure_type BaMgSiO4
_exptl_crystal_density_diffrn 3.48
_diffrn_ambient_temperature 1073.
_citation_title

;
Transitions between P21, P63(sqrt(3)A) and P6322 modifications of Sr Al2 O4 by
in situ high-temperature X-ray and neutron diffraction
;
loop_
_citation_id
_citation_journal_full
_citation_year
_citation_journal_volume
_citation_page_first
_citation_page_last
_citation_journal_id_ASTM
primary 'Journal of Solid State Chemistry' 2007 180 3535 3544 JSSCBI
loop_
_citation_author_citation_id
_citation_author_name
primary 'Avdeev, M.'
primary 'Yakovlev, S.'
primary 'Yaremchenko, A.A.'
primary 'Kharton, V.V.'
_cell_length_a 8.9349
_cell_length_b 8.9349
_cell_length_c 8.5109
_cell_angle_alpha 90.
_cell_angle_beta 90.
_cell_angle_gamma 120.
_cell_volume 588.42
_cell_formula_units_Z 6
_space_group_name_H-M_alt 'P 63'
_space_group_IT_number 173
loop_
_space_group_symop_id
_space_group_symop_operation_xyz
1 'x-y, x, z+1/2'
2 'y, -x+y, z+1/2'
3 '-x, -y, z+1/2'
4 '-x+y, -x, z'
5 '-y, x-y, z'
6 'x, y, z'
loop_
_atom_type_symbol
_atom_type_oxidation_number
Sr2+ 2
Al3+ 3
O2- -2
loop_
_atom_site_label
_atom_site_type_symbol
_atom_site_symmetry_multiplicity
_atom_site_Wyckoff_symbol
_atom_site_fract_x
_atom_site_fract_y
_atom_site_fract_z
_atom_site_U_iso_or_equiv
_atom_site_occupancy
Sr1 Sr2+ 2 a 0. 0. 0.25 . 1.
Sr2 Sr2+ 2 b 0.33333 0.66667 0.246 . 1.
Sr3 Sr2+ 2 b 0.33333 0.66667 0.738 . 1.
Al1 Al3+ 6 c 0.334 0.004 0.057 0.05 1.
Al2 Al3+ 6 c 0.338 0.005 0.447 0.018 1.
O1 O2- 6 c 0.378 0.054 0.256 . 1.
O2 O2- 6 c 0.121 0.239 0.014 . 1.
O3 O2- 6 c 0.208 0.424 0.479 . 1.
O4 O2- 6 c 0.096 0.55 0.012 . 1.
loop_
_atom_site_aniso_label
_atom_site_aniso_type_symbol
_atom_site_aniso_U_11
_atom_site_aniso_U_22
_atom_site_aniso_U_33
_atom_site_aniso_U_12
_atom_site_aniso_U_13
_atom_site_aniso_U_23
Sr1 Sr2+ 0.061 0.061 0.1 0.031 0. 0.
Sr2 Sr2+ 0.028 0.028 0.052 0.014 0. 0.
Sr3 Sr2+ 0.029 0.029 0.067 0.014 0. 0.
O1 O2- 0.36 0.19 0.044 0.23 -0.05 -0.04
O2 O2- 0.041 0.01 0.2 -0.01 0.056 -0.01
O3 O2- 0.054 0.018 0.22 0.016 -0.075 -0.043
O4 O2- 0.037 0.011 0.117 0.013 0.014 -0.006
#End of TTdata_160299-ICSD