
#(C) 2022 by FIZ Karlsruhe - Leibniz Institute for Information Infrastructure.  All rights reserved.
data_10480-ICSD
_database_code_ICSD 10480
_audit_creation_date 1980-01-01
_audit_update_record 2007-08-01
_chemical_name_common 'Lithium pentaaluminium oxide'
_chemical_formula_structural 'Li Al5 O8'
_chemical_formula_sum 'Al5 Li1 O8'
_chemical_name_structure_type Spinel#LiFe5O8
_exptl_crystal_density_diffrn 3.62
_citation_title 'Etude structurale de la forme ordonnee de Li Al5 O8'
loop_
_citation_id
_citation_journal_full
_citation_year
_citation_journal_volume
_citation_page_first
_citation_page_last
_citation_journal_id_ASTM
primary 'Journal of Solid State Chemistry' 1979 30 257 263 JSSCBI
loop_
_citation_author_citation_id
_citation_author_name
primary 'Famery, R.'
primary 'Queyroux, F.'
primary 'Gilles, J.C.'
primary 'Herpin, P.'
_cell_length_a 7.908
_cell_length_b 7.908
_cell_length_c 7.908
_cell_angle_alpha 90.
_cell_angle_beta 90.
_cell_angle_gamma 90.
_cell_volume 494.54
_cell_formula_units_Z 4
_space_group_name_H-M_alt 'P 41 3 2'
_space_group_IT_number 213
loop_
_space_group_symop_id
_space_group_symop_operation_xyz
1 '-z+1/4, y+3/4, x+1/4'
2 'z+1/4, -y+1/4, x+3/4'
3 'z+3/4, y+1/4, -x+1/4'
4 '-z+3/4, -y+3/4, -x+3/4'
5 'y+3/4, x+1/4, -z+1/4'
6 '-y+1/4, x+3/4, z+1/4'
7 'y+1/4, -x+1/4, z+3/4'
8 '-y+3/4, -x+3/4, -z+3/4'
9 'x+1/4, -z+1/4, y+3/4'
10 'x+3/4, z+1/4, -y+1/4'
11 '-x+1/4, z+3/4, y+1/4'
12 '-x+3/4, -z+3/4, -y+3/4'
13 'z+1/2, -x+1/2, -y'
14 '-z+1/2, -x, y+1/2'
15 '-z, x+1/2, -y+1/2'
16 'z, x, y'
17 '-y, z+1/2, -x+1/2'
18 'y+1/2, -z+1/2, -x'
19 '-y+1/2, -z, x+1/2'
20 'y, z, x'
21 '-x+1/2, -y, z+1/2'
22 '-x, y+1/2, -z+1/2'
23 'x+1/2, -y+1/2, -z'
24 'x, y, z'
loop_
_atom_type_symbol
_atom_type_oxidation_number
O2- -2
Al3+ 3
Li1+ 1
Al3+ 3
Li1+ 1
loop_
_atom_site_label
_atom_site_type_symbol
_atom_site_symmetry_multiplicity
_atom_site_Wyckoff_symbol
_atom_site_fract_x
_atom_site_fract_y
_atom_site_fract_z
_atom_site_B_iso_or_equiv
_atom_site_occupancy
O1 O2- 24 e 0.1171 0.3646 0.3653 . 1.
O2 O2- 8 c 0.1359 0.1359 0.1359 . 1.
Al1 Al3+ 8 c 0.0025 0.0025 0.0025 . 1.
Al2 Al3+ 4 a 0.375 0.375 0.375 . 0.042
Li1 Li1+ 4 a 0.375 0.375 0.375 . 0.957
Al3 Al3+ 12 d 0.125 0.1314 0.3814 . 0.986
Li2 Li1+ 12 d 0.125 0.1314 0.3814 . 0.013
loop_
_atom_site_aniso_label
_atom_site_aniso_type_symbol
_atom_site_aniso_beta_11
_atom_site_aniso_beta_22
_atom_site_aniso_beta_33
_atom_site_aniso_beta_12
_atom_site_aniso_beta_13
_atom_site_aniso_beta_23
O1 O2- 0.00126 0.00217 0.00134 -0.00013 0.00011 0.00045
O2 O2- 0.00122 0.00122 0.00122 0.00006 0.00006 0.00006
Al1 Al3+ 0.00095 0.00095 0.00095 0. 0. 0.
Al2 Al3+ 0.0007 0.0007 0.0007 -0.0001 -0.0001 -0.0001
Li1 Li1+ 0.0007 0.0007 0.0007 -0.0001 -0.0001 -0.0001
Al3 Al3+ 0.00092 0.00117 0.00117 -0.00015 -0.00015 0.00016
Li2 Li1+ 0.00092 0.00117 0.00117 -0.00015 -0.00015 0.00016
#End of TTdata_10480-ICSD