
#(C) 2022 by FIZ Karlsruhe - Leibniz Institute for Information Infrastructure.  All rights reserved.
data_69020-ICSD
_database_code_ICSD 69020
_audit_creation_date 1992-01-20
_chemical_name_common 'Strontium dodecaaluminium oxide'
_chemical_formula_structural 'Sr Al12 O19'
_chemical_formula_sum 'Al12 O19 Sr1'
_chemical_name_structure_type M_type_ferrite#BaFe12O19
_exptl_crystal_density_diffrn 4.02
_diffrn_ambient_temperature 295.
_citation_title

;
Study of the bipyramidal site in magnetoplumbite-like compounds SrM12O19
(M=Al, Fe, Ga)
;
loop_
_citation_id
_citation_journal_full
_citation_year
_citation_journal_volume
_citation_page_first
_citation_page_last
_citation_journal_id_ASTM
primary 'Journal of Solid State Chemistry' 1990 87 186 194 JSSCBI
loop_
_citation_author_citation_id
_citation_author_name
primary 'Kimura, K.'
primary 'Ohgaki, M.'
primary 'Tanaka, K.'
primary 'Morikawa, H.'
primary 'Marumo, F.'
_cell_length_a 5.5666
_cell_length_b 5.5666
_cell_length_c 22.0018
_cell_angle_alpha 90.
_cell_angle_beta 90.
_cell_angle_gamma 120.
_cell_volume 590.43
_cell_formula_units_Z 2
_space_group_name_H-M_alt 'P 63/m m c'
_space_group_IT_number 194
loop_
_space_group_symop_id
_space_group_symop_operation_xyz
1 'x, x-y, -z+1/2'
2 '-x+y, y, -z+1/2'
3 '-y, -x, -z+1/2'
4 '-x+y, -x, -z+1/2'
5 '-y, x-y, -z+1/2'
6 'x, y, -z+1/2'
7 '-x, -x+y, z+1/2'
8 'x-y, -y, z+1/2'
9 'y, x, z+1/2'
10 'x-y, x, z+1/2'
11 'y, -x+y, z+1/2'
12 '-x, -y, z+1/2'
13 '-x, -x+y, -z'
14 'x-y, -y, -z'
15 'y, x, -z'
16 'x-y, x, -z'
17 'y, -x+y, -z'
18 '-x, -y, -z'
19 'x, x-y, z'
20 '-x+y, y, z'
21 '-y, -x, z'
22 '-x+y, -x, z'
23 '-y, x-y, z'
24 'x, y, z'
loop_
_atom_type_symbol
_atom_type_oxidation_number
Sr2+ 2
Al3+ 3
O2- -2
loop_
_atom_site_label
_atom_site_type_symbol
_atom_site_symmetry_multiplicity
_atom_site_Wyckoff_symbol
_atom_site_fract_x
_atom_site_fract_y
_atom_site_fract_z
_atom_site_B_iso_or_equiv
_atom_site_occupancy
Sr1 Sr2+ 2 d 0.33333 0.66667 0.75 . 1.
Al1 Al3+ 2 a 0. 0. 0. . 1.
Al2 Al3+ 4 e 0. 0. 0.2404 . 0.5
Al3 Al3+ 4 f 0.33333 0.66667 0.02803 . 1.
Al4 Al3+ 4 f 0.33333 0.66667 0.1905 . 1.
Al5 Al3+ 12 k 0.1684 0.3368 0.60834 . 1.
O1 O2- 4 e 0. 0. 0.1483 . 1.
O2 O2- 4 f 0.33333 0.66667 0.5544 . 1.
O3 O2- 6 h 0.1817 0.3634 0.25 . 1.
O4 O2- 12 k 0.1548 0.3096 0.05166 . 1.
O5 O2- 12 k 0.5022 0.0044 0.14809 . 1.
loop_
_atom_site_aniso_label
_atom_site_aniso_type_symbol
_atom_site_aniso_U_11
_atom_site_aniso_U_22
_atom_site_aniso_U_33
_atom_site_aniso_U_12
_atom_site_aniso_U_13
_atom_site_aniso_U_23
Sr1 Sr2+ 0.0057 0.0057 0.0057 0.0029 0. 0.
Al1 Al3+ 0.0041 0.0041 0.0024 0.0021 0. 0.
Al2 Al3+ 0.0024 0.0024 0.0094 0.0012 0. 0.
Al3 Al3+ 0.0035 0.0035 0.0039 0.0018 0. 0.
Al4 Al3+ 0.0042 0.0042 0.0037 0.0021 0. 0.
Al5 Al3+ 0.0032 0.0033 0.0046 0.0017 -0.0003 -0.0006
O1 O2- 0.0034 0.0034 0.002 0.0017 0. 0.
O2 O2- 0.0042 0.0042 0.0059 0.0021 0. 0.
O3 O2- 0.0049 0.0019 0.0052 0.001 0. 0.
O4 O2- 0.0037 0.0025 0.0047 0.0013 -0.0003 -0.0005
O5 O2- 0.004 0.0041 0.0063 0.0021 0.0007 0.0014
#End of TTdata_69020-ICSD