
#(C) 2022 by FIZ Karlsruhe - Leibniz Institute for Information Infrastructure.  All rights reserved.
data_82504-ICSD
_database_code_ICSD 82504
_audit_creation_date 1997-11-10
_chemical_name_common 'Aluminium oxide - theta'
_chemical_formula_structural 'Al2 O3'
_chemical_formula_sum 'Al2 O3'
_chemical_name_structure_type Ga2O3
_exptl_crystal_density_diffrn 3.61
_citation_title 'Structural studies of transition aluminas. Theta alumina'
loop_
_citation_id
_citation_journal_full
_citation_year
_citation_journal_volume
_citation_page_first
_citation_page_last
_citation_journal_id_ASTM
primary 'European Journal of Solid State and Inorganic Chemistry' 1996 33 1223
1231 EJSCE5
loop_
_citation_author_citation_id
_citation_author_name
primary 'Husson, E.'
primary 'Repelin, Y.'
_cell_length_a 11.795
_cell_length_b 2.91
_cell_length_c 5.621
_cell_angle_alpha 90.
_cell_angle_beta 103.79
_cell_angle_gamma 90.
_cell_volume 187.37
_cell_formula_units_Z 4
_space_group_name_H-M_alt 'C 1 2/m 1'
_space_group_IT_number 12
loop_
_space_group_symop_id
_space_group_symop_operation_xyz
1 '-x, y, -z'
2 '-x, -y, -z'
3 'x, -y, z'
4 'x, y, z'
5 '-x+1/2, y+1/2, -z'
6 '-x+1/2, -y+1/2, -z'
7 'x+1/2, -y+1/2, z'
8 'x+1/2, y+1/2, z'
loop_
_atom_type_symbol
_atom_type_oxidation_number
O2- -2
Al3+ 3
loop_
_atom_site_label
_atom_site_type_symbol
_atom_site_symmetry_multiplicity
_atom_site_Wyckoff_symbol
_atom_site_fract_x
_atom_site_fract_y
_atom_site_fract_z
_atom_site_B_iso_or_equiv
_atom_site_occupancy
O1 O2- 4 i 0.16268 0. 0.62276 1.15 1.
O2 O2- 4 i 0.51055 0. 0.23873 0.56 1.
O3 O2- 4 i 0.17005 0. 0.06137 0.54 1.
Al1 Al3+ 4 i 0.10134 0. 0.2944 2.06 1.
Al2 Al3+ 4 i 0.35235 0. 0.18739 1.28 1.
#End of TTdata_82504-ICSD