
#(C) 2022 by FIZ Karlsruhe - Leibniz Institute for Information Infrastructure.  All rights reserved.
data_114304-ICSD
_database_code_ICSD 114304
_audit_creation_date 2022-08-01
_chemical_name_common 'Strontium aluminium oxide (1/12/19) - 0.12 Cr(3+) doped'
_chemical_formula_structural 'Sr (Al12 O19)'
_chemical_formula_sum 'Al12 O19 Sr1'
_chemical_name_structure_type M_type_ferrite#BaFe12O19
_exptl_crystal_density_diffrn 4.02
_citation_title

;
Chromium ion pair luminescence. A strategy in broadband near-infrared
light-emitting diode design
;
loop_
_citation_id
_citation_journal_full
_citation_year
_citation_journal_volume
_citation_page_first
_citation_page_last
_citation_journal_id_ASTM
primary 'Journal of the American Chemical Society' 2021 143 19058 19066 JACSAT
loop_
_citation_author_citation_id
_citation_author_name
primary 'Rajendran, Veeramani'
primary 'Fang, Mu-Huai'
primary 'Huang, Wen-Tse'
primary 'Majewska, Natalia'
primary 'Lesniewski, Tadeusz'
primary 'Mahlik, Sebastian'
primary 'Leniec, Grzegorz'
primary 'Kaczmarek, Slawomir M.'
primary 'Pang, Wei Kong'
primary 'Peterson, Vanessa K.'
primary 'Lu, Kuang-Mao'
primary 'Chang, Ho'
primary 'Liu, Ru-Shi'
_cell_length_a 5.5689
_cell_length_b 5.5689
_cell_length_c 22.0133
_cell_angle_alpha 90.
_cell_angle_beta 90.
_cell_angle_gamma 120.
_cell_volume 591.23
_cell_formula_units_Z 2
_space_group_name_H-M_alt 'P 63/m m c'
_space_group_IT_number 194
loop_
_space_group_symop_id
_space_group_symop_operation_xyz
1 'x, x-y, -z+1/2'
2 '-x+y, y, -z+1/2'
3 '-y, -x, -z+1/2'
4 '-x+y, -x, -z+1/2'
5 '-y, x-y, -z+1/2'
6 'x, y, -z+1/2'
7 '-x, -x+y, z+1/2'
8 'x-y, -y, z+1/2'
9 'y, x, z+1/2'
10 'x-y, x, z+1/2'
11 'y, -x+y, z+1/2'
12 '-x, -y, z+1/2'
13 '-x, -x+y, -z'
14 'x-y, -y, -z'
15 'y, x, -z'
16 'x-y, x, -z'
17 'y, -x+y, -z'
18 '-x, -y, -z'
19 'x, x-y, z'
20 '-x+y, y, z'
21 '-y, -x, z'
22 '-x+y, -x, z'
23 '-y, x-y, z'
24 'x, y, z'
loop_
_atom_type_symbol
_atom_type_oxidation_number
Sr2+ 2
Al3+ 3
O2- -2
loop_
_atom_site_label
_atom_site_type_symbol
_atom_site_symmetry_multiplicity
_atom_site_Wyckoff_symbol
_atom_site_fract_x
_atom_site_fract_y
_atom_site_fract_z
_atom_site_B_iso_or_equiv
_atom_site_occupancy
Sr1 Sr2+ 2 d 0.33333 0.66667 0.75 0.25 1.
Al1 Al3+ 2 a 0. 0. 0. 0.55 1.
Al2 Al3+ 4 e 0. 0. 0.2395 0.1 0.5
Al3 Al3+ 4 f 0.33333 0.66667 0.02789 0.1 1.
Al4 Al3+ 4 f 0.33333 0.66667 0.18981 0.1 1.
Al5 Al3+ 12 k 0.1684 0.3368 0.60843 0.1 1.
O1 O2- 4 e 0. 0. 0.14851 0.1 1.
O2 O2- 4 f 0.33333 0.66667 0.55417 0.1 1.
O3 O2- 6 h 0.1822 0.3645 0.25 0.1 1.
O4 O2- 12 k 0.15503 0.3101 0.05171 0.263 1.
O5 O2- 12 k 0.5027 0.0055 0.14801 0.263 1.
#End of TTdata_114304-ICSD