
#(C) 2022 by FIZ Karlsruhe - Leibniz Institute for Information Infrastructure.  All rights reserved.
data_95535-ICSD
_database_code_ICSD 95535
_audit_creation_date 2003-10-01
_chemical_name_common 'Decatrontium hexaaluminium oxide'
_chemical_formula_structural 'Sr10 Al6 O19'
_chemical_formula_sum 'Al6 O19 Sr10'
_chemical_name_structure_type Sr10Ga6O19
_exptl_crystal_density_diffrn 4.29
_citation_title

;
Synthesis and crystal structure of Sr10 Al6 O19: a derivative of the
perovskite structure type in the system Sr O - Al2 O3
;
loop_
_citation_id
_citation_journal_full
_citation_year
_citation_journal_volume
_citation_page_first
_citation_page_last
_citation_journal_id_ASTM
primary 'Materials Research Bulletin' 2002 37 715 726 MRBUAC
loop_
_citation_author_citation_id
_citation_author_name
primary 'Kahlenberg, V.'
_cell_length_a 34.5823
_cell_length_b 7.846
_cell_length_c 15.7485
_cell_angle_alpha 90.
_cell_angle_beta 103.68
_cell_angle_gamma 90.
_cell_volume 4151.86
_cell_formula_units_Z 8
_space_group_name_H-M_alt 'C 1 2/c 1'
_space_group_IT_number 15
loop_
_space_group_symop_id
_space_group_symop_operation_xyz
1 'x, -y, z+1/2'
2 '-x, -y, -z'
3 '-x, y, -z+1/2'
4 'x, y, z'
5 'x+1/2, -y+1/2, z+1/2'
6 '-x+1/2, -y+1/2, -z'
7 '-x+1/2, y+1/2, -z+1/2'
8 'x+1/2, y+1/2, z'
loop_
_atom_type_symbol
_atom_type_oxidation_number
Sr2+ 2
Al3+ 3
O2- -2
loop_
_atom_site_label
_atom_site_type_symbol
_atom_site_symmetry_multiplicity
_atom_site_Wyckoff_symbol
_atom_site_fract_x
_atom_site_fract_y
_atom_site_fract_z
_atom_site_U_iso_or_equiv
_atom_site_occupancy
Sr1 Sr2+ 8 f 0.374 0.2497 0.17285 0.0165 1.
Sr2 Sr2+ 8 f 0.11981 0.2966 0.07483 0.0159 1.
Sr3 Sr2+ 8 f 0.43572 0.0427 0.33218 0.0147 1.
Sr4 Sr2+ 8 f 0.00065 0.2445 0.0249 0.0178 1.
Sr5 Sr2+ 8 f 0.31349 0.4763 0.02321 0.0142 1.
Sr6 Sr2+ 8 f 0.12498 0.2496 0.32137 0.0181 1.
Sr7 Sr2+ 8 f 0.24971 0.2709 0.15002 0.0194 1.
Sr8 Sr2+ 8 f 0.1306 0.2398 0.56258 0.0184 1.
Sr9 Sr2+ 4 e 0. 0.2825 0.25 0.0216 1.
Sr10 Sr2+ 4 e 0. 0.8368 0.25 0.0195 1.
Sr11 Sr2+ 8 f 0.24892 0.2477 0.38262 0.018 1.
Al1 Al3+ 8 f 0.44342 0.0355 0.0898 0.013 1.
Al2 Al3+ 8 f 0.43559 0.481 0.0671 0.0124 1.
Al3 Al3+ 8 f 0.07395 0.01 0.1513 0.0127 1.
Al4 Al3+ 8 f 0.17882 0.0346 0.2152 0.0135 1.
Al5 Al3+ 8 f 0.18513 0.4868 0.2381 0.0117 1.
Al6 Al3+ 8 f 0.30577 0.0067 0.0385 0.0139 1.
O1 O2- 8 f 0.3142 0.4457 0.18 0.021 1.
O2 O2- 8 f 0.3325 0.1775 0.0087 0.018 1.
O3 O2- 8 f 0.0233 0.069 0.3602 0.021 1.
O4 O2- 8 f 0.0625 0.2259 0.168 0.021 1.
O5 O2- 8 f 0.2729 0.0627 0.2913 0.022 1.
O6 O2- 8 f 0.0558 0.0337 0.5378 0.023 1.
O7 O2- 8 f 0.3108 0.0318 0.1516 0.03 1.
O8 O2- 8 f 0.3628 0.0481 0.3173 0.018 1.
O9 O2- 8 f 0.4354 0.3406 0.2859 0.019 1.
O10 O2- 8 f 0.0816 0.4848 0.3287 0.019 1.
O11 O2- 8 f 0.4377 0.256 0.0675 0.027 1.
O12 O2- 8 f 0.1261 0.0189 0.1658 0.023 1.
O13 O2- 8 f 0.2447 0.4843 0.0129 0.026 1.
O14 O2- 8 f 0.0734 0.5583 0.0147 0.021 1.
O15 O2- 8 f 0.1129 0.0333 0.4268 0.02 1.
O16 O2- 8 f 0.1863 0.26 0.2304 0.021 1.
O17 O2- 8 f 0.495 0.0027 0.1241 0.022 1.
O18 O2- 8 f 0.1789 0.2929 0.4715 0.023 1.
O19 O2- 8 f 0.2995 0.4623 0.3664 0.022 1.
loop_
_atom_site_aniso_label
_atom_site_aniso_type_symbol
_atom_site_aniso_U_11
_atom_site_aniso_U_22
_atom_site_aniso_U_33
_atom_site_aniso_U_12
_atom_site_aniso_U_13
_atom_site_aniso_U_23
Sr1 Sr2+ 0.016 0.015 0.018 0. 0.002 0.
Sr2 Sr2+ 0.017 0.016 0.016 -0.001 0.005 -0.001
Sr3 Sr2+ 0.013 0.015 0.016 0. 0.004 0.001
Sr4 Sr2+ 0.019 0.018 0.017 0.002 0.005 0.001
Sr5 Sr2+ 0.013 0.015 0.015 0.002 0.003 0.
Sr6 Sr2+ 0.021 0.017 0.017 -0.002 0.006 -0.001
Sr7 Sr2+ 0.018 0.018 0.024 0. 0.008 0.002
Sr8 Sr2+ 0.022 0.017 0.017 0.001 0.007 -0.001
Sr9 Sr2+ 0.032 0.018 0.014 0. 0.005 0.
Sr10 Sr2+ 0.018 0.02 0.022 0. 0.008 0.
Sr11 Sr2+ 0.019 0.018 0.018 0.001 0.006 -0.001
Al1 Al3+ 0.015 0.011 0.014 0. 0.004 0.001
Al2 Al3+ 0.014 0.014 0.011 -0.001 0.003 -0.001
Al3 Al3+ 0.009 0.014 0.015 0.001 0.003 -0.001
Al4 Al3+ 0.014 0.013 0.013 0.001 0.002 -0.001
Al5 Al3+ 0.013 0.01 0.013 -0.001 0.004 -0.002
Al6 Al3+ 0.014 0.012 0.015 -0.001 0.004 0.001
O1 O2- 0.019 0.027 0.017 -0.001 0.007 -0.002
O2 O2- 0.024 0.013 0.022 0.001 0.012 0.003
O3 O2- 0.018 0.027 0.019 0.003 0.005 -0.001
O4 O2- 0.025 0.012 0.024 0.001 0.002 0.
O5 O2- 0.011 0.027 0.029 0.004 0.005 0.
O6 O2- 0.028 0.02 0.019 0.006 0.004 0.001
O7 O2- 0.042 0.03 0.015 -0.007 0.002 0.
O8 O2- 0.013 0.023 0.018 -0.002 0.002 -0.003
O9 O2- 0.023 0.016 0.019 -0.004 0.006 -0.001
O10 O2- 0.03 0.016 0.014 0.004 0.01 0.
O11 O2- 0.037 0.014 0.028 -0.005 0.006 0.003
O12 O2- 0.016 0.019 0.034 -0.002 0.003 -0.004
O13 O2- 0.013 0.039 0.025 -0.001 0.005 0.002
O14 O2- 0.026 0.022 0.019 0.004 0.01 0.004
O15 O2- 0.014 0.023 0.023 0. 0.005 0.003
O16 O2- 0.025 0.012 0.027 0. 0.007 -0.001
O17 O2- 0.011 0.025 0.029 0.001 0. 0.003
O18 O2- 0.038 0.01 0.024 -0.001 0.013 -0.001
O19 O2- 0.03 0.026 0.013 -0.004 0.008 0.
#End of TTdata_95535-ICSD