
#(C) 2022 by FIZ Karlsruhe - Leibniz Institute for Information Infrastructure.  All rights reserved.
data_403515-ICSD
_database_code_ICSD 403515
_audit_creation_date 2020-08-01
_chemical_name_common 'Strontium lithium aluminate, europium(II)-doped'
_chemical_formula_structural 'Sr0.833 Al1.167 Li2.833 O4'
_chemical_formula_sum 'Al1.167 Li2.833 O4 Sr0.833'
_exptl_crystal_density_diffrn 3.15
_diffrn_ambient_temperature 293.
_citation_title

;
Compositely modulated structures of phosphor materials
Sr$_x$Li$_{2+x}$Al$_{2â€“x}$O$_4$:Eu$^{2+}$
;
loop_
_citation_id
_citation_journal_full
_citation_year
_citation_journal_volume
_citation_page_first
_citation_page_last
_citation_journal_id_ASTM
primary

;
Acta Crystallographica, Section B: Structural Science, Crystal Engineering and
Materials
; 2020 76 76 84 ACSBDA
loop_
_citation_author_citation_id
_citation_author_name
primary 'Ooishi, Atsushi'
primary 'Michiue, Yuichi'
primary 'Funahashi, Shiro'
primary 'Takeda, Takashi'
primary 'Hirosaki, Naoto'
_cell_length_a 7.8957
_cell_length_b 7.8957
_cell_length_c 3.183
_cell_angle_alpha 90.
_cell_angle_beta 90.
_cell_angle_gamma 90.
_cell_volume 198.43
_cell_formula_units_Z 2
_space_group_name_H-M_alt 'I 4/m'
_space_group_IT_number 87
loop_
_space_group_symop_id
_space_group_symop_operation_xyz
1 '-y, x, -z'
2 'y, -x, -z'
3 'x, y, -z'
4 '-x, -y, -z'
5 'y, -x, z'
6 '-y, x, z'
7 '-x, -y, z'
8 'x, y, z'
9 '-y+1/2, x+1/2, -z+1/2'
10 'y+1/2, -x+1/2, -z+1/2'
11 'x+1/2, y+1/2, -z+1/2'
12 '-x+1/2, -y+1/2, -z+1/2'
13 'y+1/2, -x+1/2, z+1/2'
14 '-y+1/2, x+1/2, z+1/2'
15 '-x+1/2, -y+1/2, z+1/2'
16 'x+1/2, y+1/2, z+1/2'
loop_
_atom_type_symbol
_atom_type_oxidation_number
Al3+ 3
Li1+ 1
O2- -2
Sr2+ 2
loop_
_atom_site_label
_atom_site_type_symbol
_atom_site_symmetry_multiplicity
_atom_site_Wyckoff_symbol
_atom_site_fract_x
_atom_site_fract_y
_atom_site_fract_z
_atom_site_U_iso_or_equiv
_atom_site_occupancy
Al1 Al3+ 8 h 0.14298 0.31593 0. 0.0185 0.2917
Li1 Li1+ 8 h 0.14298 0.31593 0. 0.0185 0.7083
O1 O2- 8 h 0.26113 0.09144 0. 0.02143 1.
Sr1 Sr2+ 2 b 0. 0. 0.5 0.0629 0.6
Sr2 Sr2+ 4 e 0. 0. 0.067 0.085 0.2
loop_
_atom_site_aniso_label
_atom_site_aniso_type_symbol
_atom_site_aniso_U_11
_atom_site_aniso_U_22
_atom_site_aniso_U_33
_atom_site_aniso_U_12
_atom_site_aniso_U_13
_atom_site_aniso_U_23
Al1 Al3+ 0.0151 0.0285 0.012 -0.0061 0. 0.
Li1 Li1+ 0.0151 0.0285 0.012 -0.0061 0. 0.
O1 O2- 0.031 0.0154 0.0178 -0.005 0. 0.
Sr1 Sr2+ 0.044 0.044 0.101 0. 0. 0.
Sr2 Sr2+ 0.036 0.036 0.182 0. 0. 0.
#End of TTdata_403515-ICSD